  MPI-parallelism will be employed.
------------------------------------------------------------
          Invoking FHI-aims ...
          Version 170329
          Git rev.: 67224d2 PGI compatibility fixes.
          Compiled on 2017/04/04 at 21:21:26 on host access.grid.unesp.br.

          When using FHI-aims, please cite the following reference:

          Volker Blum, Ralf Gehrke, Felix Hanke, Paula Havu,
          Ville Havu, Xinguo Ren, Karsten Reuter, and Matthias Scheffler,
          'Ab Initio Molecular Simulations with Numeric Atom-Centered Orbitals',
          Computer Physics Communications 180, 2175-2196 (2009)

          For any questions about FHI-aims, please visit the aimsclub website
          with its forums and wiki. Contributions to both the forums and the
          wiki are warmly encouraged - they are for you, and everyone is welcome there.

------------------------------------------------------------



  Date     :  20200401, Time     :  214137.585
  Time zero on CPU 1             :   0.238969000000000E+00  s.
  Internal wall clock time zero  :           355009297.585  s.

  FHI-aims created a unique identifier for this run for later identification
  aims_uuid : A391CB3C-1CEF-4591-A2B9-296226787F70

  Using      300 parallel tasks.
  Task        0 on host node004 reporting.
  Task        1 on host node004 reporting.
  Task        2 on host node004 reporting.
  Task        3 on host node004 reporting.
  Task        4 on host node004 reporting.
  Task        5 on host node004 reporting.
  Task        6 on host node005 reporting.
  Task        7 on host node005 reporting.
  Task        8 on host node006 reporting.
  Task        9 on host node006 reporting.
  Task       10 on host node006 reporting.
  Task       11 on host node006 reporting.
  Task       12 on host node006 reporting.
  Task       13 on host node006 reporting.
  Task       14 on host node006 reporting.
  Task       15 on host node006 reporting.
  Task       16 on host node006 reporting.
  Task       17 on host node006 reporting.
  Task       18 on host node006 reporting.
  Task       19 on host node006 reporting.
  Task       20 on host node006 reporting.
  Task       21 on host node006 reporting.
  Task       22 on host node006 reporting.
  Task       23 on host node006 reporting.
  Task       24 on host node006 reporting.
  Task       25 on host node006 reporting.
  Task       26 on host node006 reporting.
  Task       27 on host node006 reporting.
  Task       28 on host node006 reporting.
  Task       29 on host node006 reporting.
  Task       30 on host node006 reporting.
  Task       31 on host node006 reporting.
  Task       32 on host node006 reporting.
  Task       33 on host node006 reporting.
  Task       34 on host node006 reporting.
  Task       35 on host node006 reporting.
  Task       36 on host node006 reporting.
  Task       37 on host node006 reporting.
  Task       38 on host node011 reporting.
  Task       39 on host node011 reporting.
  Task       40 on host node011 reporting.
  Task       41 on host node011 reporting.
  Task       42 on host node011 reporting.
  Task       43 on host node011 reporting.
  Task       44 on host node011 reporting.
  Task       45 on host node011 reporting.
  Task       46 on host node011 reporting.
  Task       47 on host node011 reporting.
  Task       48 on host node011 reporting.
  Task       49 on host node011 reporting.
  Task       50 on host node011 reporting.
  Task       51 on host node011 reporting.
  Task       52 on host node011 reporting.
  Task       53 on host node011 reporting.
  Task       54 on host node011 reporting.
  Task       55 on host node011 reporting.
  Task       56 on host node011 reporting.
  Task       57 on host node011 reporting.
  Task       58 on host node011 reporting.
  Task       59 on host node011 reporting.
  Task       60 on host node011 reporting.
  Task       61 on host node011 reporting.
  Task       62 on host node012 reporting.
  Task       63 on host node012 reporting.
  Task       64 on host node012 reporting.
  Task       65 on host node012 reporting.
  Task       66 on host node013 reporting.
  Task       67 on host node013 reporting.
  Task       68 on host node013 reporting.
  Task       69 on host node013 reporting.
  Task       70 on host node013 reporting.
  Task       71 on host node013 reporting.
  Task       72 on host node013 reporting.
  Task       73 on host node013 reporting.
  Task       74 on host node013 reporting.
  Task       75 on host node013 reporting.
  Task       76 on host node013 reporting.
  Task       77 on host node013 reporting.
  Task       78 on host node013 reporting.
  Task       79 on host node013 reporting.
  Task       80 on host node013 reporting.
  Task       81 on host node013 reporting.
  Task       82 on host node020 reporting.
  Task       83 on host node020 reporting.
  Task       84 on host node020 reporting.
  Task       85 on host node020 reporting.
  Task       86 on host node020 reporting.
  Task       87 on host node020 reporting.
  Task       88 on host node020 reporting.
  Task       89 on host node020 reporting.
  Task       90 on host node020 reporting.
  Task       91 on host node020 reporting.
  Task       92 on host node036 reporting.
  Task       93 on host node036 reporting.
  Task       94 on host node036 reporting.
  Task       95 on host node036 reporting.
  Task       96 on host node036 reporting.
  Task       97 on host node036 reporting.
  Task       98 on host node036 reporting.
  Task       99 on host node036 reporting.
  Task      100 on host node036 reporting.
  Task      101 on host node036 reporting.
  Task      102 on host node036 reporting.
  Task      103 on host node036 reporting.
  Task      104 on host node036 reporting.
  Task      105 on host node036 reporting.
  Task      106 on host node036 reporting.
  Task      107 on host node036 reporting.
  Task      108 on host node036 reporting.
  Task      109 on host node036 reporting.
  Task      110 on host node036 reporting.
  Task      111 on host node036 reporting.
  Task      112 on host node036 reporting.
  Task      113 on host node036 reporting.
  Task      114 on host node036 reporting.
  Task      115 on host node036 reporting.
  Task      116 on host node036 reporting.
  Task      117 on host node036 reporting.
  Task      118 on host node036 reporting.
  Task      119 on host node036 reporting.
  Task      120 on host node036 reporting.
  Task      121 on host node036 reporting.
  Task      122 on host node036 reporting.
  Task      123 on host node036 reporting.
  Task      124 on host node036 reporting.
  Task      125 on host node036 reporting.
  Task      126 on host node036 reporting.
  Task      127 on host node036 reporting.
  Task      128 on host node036 reporting.
  Task      129 on host node036 reporting.
  Task      130 on host node036 reporting.
  Task      131 on host node036 reporting.
  Task      132 on host node036 reporting.
  Task      133 on host node036 reporting.
  Task      134 on host node036 reporting.
  Task      135 on host node036 reporting.
  Task      136 on host node036 reporting.
  Task      137 on host node036 reporting.
  Task      138 on host node036 reporting.
  Task      139 on host node036 reporting.
  Task      140 on host node037 reporting.
  Task      141 on host node037 reporting.
  Task      142 on host node037 reporting.
  Task      143 on host node037 reporting.
  Task      144 on host node037 reporting.
  Task      145 on host node037 reporting.
  Task      146 on host node037 reporting.
  Task      147 on host node037 reporting.
  Task      148 on host node038 reporting.
  Task      149 on host node038 reporting.
  Task      150 on host node038 reporting.
  Task      151 on host node038 reporting.
  Task      152 on host node038 reporting.
  Task      153 on host node038 reporting.
  Task      154 on host node038 reporting.
  Task      155 on host node038 reporting.
  Task      156 on host node038 reporting.
  Task      157 on host node038 reporting.
  Task      158 on host node038 reporting.
  Task      159 on host node038 reporting.
  Task      160 on host node038 reporting.
  Task      161 on host node038 reporting.
  Task      162 on host node038 reporting.
  Task      163 on host node038 reporting.
  Task      164 on host node038 reporting.
  Task      165 on host node038 reporting.
  Task      166 on host node038 reporting.
  Task      167 on host node038 reporting.
  Task      168 on host node038 reporting.
  Task      169 on host node038 reporting.
  Task      170 on host node038 reporting.
  Task      171 on host node038 reporting.
  Task      172 on host node038 reporting.
  Task      173 on host node038 reporting.
  Task      174 on host node039 reporting.
  Task      175 on host node039 reporting.
  Task      176 on host node048 reporting.
  Task      177 on host node048 reporting.
  Task      178 on host node048 reporting.
  Task      179 on host node048 reporting.
  Task      180 on host node048 reporting.
  Task      181 on host node048 reporting.
  Task      182 on host node048 reporting.
  Task      183 on host node048 reporting.
  Task      184 on host node048 reporting.
  Task      185 on host node048 reporting.
  Task      186 on host node049 reporting.
  Task      187 on host node049 reporting.
  Task      188 on host node049 reporting.
  Task      189 on host node049 reporting.
  Task      190 on host node049 reporting.
  Task      191 on host node049 reporting.
  Task      192 on host node049 reporting.
  Task      193 on host node049 reporting.
  Task      194 on host node049 reporting.
  Task      195 on host node049 reporting.
  Task      196 on host node049 reporting.
  Task      197 on host node049 reporting.
  Task      198 on host node049 reporting.
  Task      199 on host node049 reporting.
  Task      200 on host node049 reporting.
  Task      201 on host node049 reporting.
  Task      202 on host node049 reporting.
  Task      203 on host node049 reporting.
  Task      204 on host node049 reporting.
  Task      205 on host node049 reporting.
  Task      206 on host node049 reporting.
  Task      207 on host node049 reporting.
  Task      208 on host node049 reporting.
  Task      209 on host node049 reporting.
  Task      210 on host node049 reporting.
  Task      211 on host node049 reporting.
  Task      212 on host node049 reporting.
  Task      213 on host node049 reporting.
  Task      214 on host node049 reporting.
  Task      215 on host node049 reporting.
  Task      216 on host node049 reporting.
  Task      217 on host node049 reporting.
  Task      218 on host node050 reporting.
  Task      219 on host node050 reporting.
  Task      220 on host node050 reporting.
  Task      221 on host node050 reporting.
  Task      222 on host node050 reporting.
  Task      223 on host node050 reporting.
  Task      224 on host node050 reporting.
  Task      225 on host node050 reporting.
  Task      226 on host node050 reporting.
  Task      227 on host node050 reporting.
  Task      228 on host node050 reporting.
  Task      229 on host node050 reporting.
  Task      230 on host node051 reporting.
  Task      231 on host node051 reporting.
  Task      232 on host node051 reporting.
  Task      233 on host node051 reporting.
  Task      234 on host node051 reporting.
  Task      235 on host node051 reporting.
  Task      236 on host node051 reporting.
  Task      237 on host node051 reporting.
  Task      238 on host node051 reporting.
  Task      239 on host node051 reporting.
  Task      240 on host node051 reporting.
  Task      241 on host node051 reporting.
  Task      242 on host node051 reporting.
  Task      243 on host node051 reporting.
  Task      244 on host node051 reporting.
  Task      245 on host node051 reporting.
  Task      246 on host node051 reporting.
  Task      247 on host node051 reporting.
  Task      248 on host node051 reporting.
  Task      249 on host node051 reporting.
  Task      250 on host node051 reporting.
  Task      251 on host node051 reporting.
  Task      252 on host node051 reporting.
  Task      253 on host node051 reporting.
  Task      254 on host node051 reporting.
  Task      255 on host node051 reporting.
  Task      256 on host node051 reporting.
  Task      257 on host node051 reporting.
  Task      258 on host node051 reporting.
  Task      259 on host node051 reporting.
  Task      260 on host node051 reporting.
  Task      261 on host node051 reporting.
  Task      262 on host node052 reporting.
  Task      263 on host node052 reporting.
  Task      264 on host node052 reporting.
  Task      265 on host node052 reporting.
  Task      266 on host node052 reporting.
  Task      267 on host node052 reporting.
  Task      268 on host node052 reporting.
  Task      269 on host node052 reporting.
  Task      270 on host node053 reporting.
  Task      271 on host node053 reporting.
  Task      272 on host node053 reporting.
  Task      273 on host node053 reporting.
  Task      274 on host node053 reporting.
  Task      275 on host node053 reporting.
  Task      276 on host node053 reporting.
  Task      277 on host node053 reporting.
  Task      278 on host node053 reporting.
  Task      279 on host node053 reporting.
  Task      280 on host node053 reporting.
  Task      281 on host node053 reporting.
  Task      282 on host node053 reporting.
  Task      283 on host node053 reporting.
  Task      284 on host node053 reporting.
  Task      285 on host node053 reporting.
  Task      286 on host node053 reporting.
  Task      287 on host node053 reporting.
  Task      288 on host node053 reporting.
  Task      289 on host node053 reporting.
  Task      290 on host node053 reporting.
  Task      291 on host node053 reporting.
  Task      292 on host node054 reporting.
  Task      293 on host node054 reporting.
  Task      294 on host node054 reporting.
  Task      295 on host node054 reporting.
  Task      296 on host node054 reporting.
  Task      297 on host node054 reporting.
  Task      298 on host node054 reporting.
  Task      299 on host node054 reporting.

  Performing system and environment tests:
  *** Environment variable OMP_NUM_THREADS is not set
  *** For performance reasons you might want to set it to 1
  | Stacksize not measured: no C compiler
  | Checking for scalapack...
  | Testing pdtran()...
  | All pdtran() tests passed.

  Obtaining array dimensions for all initial allocations:
  
  -----------------------------------------------------------------------
  Parsing control.in (first pass over file, find array dimensions only).
  The contents of control.in will be repeated verbatim below
  unless switched off by setting 'verbatim_writeout .false.' .
  in the first line of control.in .
  -----------------------------------------------------------------------
  
  #
   xc pbe
   vdw_correction_hirshfeld
   relativistic atomic_zora scalar
  #
   occupation_type gaussian 0.01
   n_max_pulay 8
   charge_mix_param 0.2
   sc_accuracy_rho 1e-6
   sc_accuracy_eev 1e-4
  #
   relax_geometry bfgs 5e-4
   relax_unit_cell full
  #
  use_dipole_correction
  #
  sc_accuracy_forces 1e-5
  sc_accuracy_stress 1e-5
  #
    k_grid 2 2 2
  #
     output species_proj_dos -10 10 1000 0.1
     output dos              -10 10 1000 0.1
     dos_kgrid_factors  2 2 2
  #
  output band   0.000  0.000  0.000   0.500  0.000  0.000   21	  Gamma      X
  output band   0.500  0.000  0.000   0.500  0.500  0.000   21	  X	 S
  output band   0.500  0.500  0.000   0.000  0.000  0.000   21	  S	 Gamma
  output band   0.000  0.000  0.000   0.000  0.500  0.000   21	  Gamma  Y
  
  ################################################################################
  #
  #  FHI-aims code project
  # Volker Blum, Fritz Haber Institute Berlin, 2009
  #
  #  Suggested "tight" defaults for Mo atom (to be pasted into control.in file)
  #
  ################################################################################
    species        Mo
  #     global species definitions
      nucleus             42
      mass                95.94
  #
      l_hartree           6
  #
      cut_pot             4.0  2.0  1.0
      basis_dep_cutoff    1e-4
  #
      radial_base         59 7.0
      radial_multiplier   2
      angular_grids specified
        division   0.3117   50
        division   0.6750  110
        division   1.0351  194
        division   1.2073  302
        division   1.6402  434
  #      division   1.9185  590
  #      division   2.0237  770
  #      division   2.0980  974
  #      division   2.7972 1202
  #      outer_grid  974
        outer_grid  434
  ################################################################################
  #
  #  Definition of "minimal" basis
  #
  ################################################################################
  #     valence basis states
      valence      5  s   1.
      valence      4  p   6.
      valence      4  d   5.
  #     ion occupancy
      ion_occ     5  s   0.
      ion_occ     4  p   6.
      ion_occ     4  d   4.
  ################################################################################
  #
  #  Suggested additional basis functions. For production calculations,
  #  uncomment them one after another (the most important basis functions are
  #  listed first).
  #
  #  Constructed for dimers: 1.675 A, 1.9 A, 2.375 A, 3.00 A, 4.00 A
  #
  ################################################################################
  #  "First tier"  - max. impr. -711.23  meV, min. impr. -21.07 meV
       hydro 4 f 8.4
       hydro 3 d 2.8
       ionic 5 p auto
       hydro 5 g 12
       ionic 5 s auto
  #  "Second tier" - max. impr. -39.38  meV, min. impr. -2.68 meV
  #     hydro 4 f 12.4
  #     hydro 3 d 3.3
  #     hydro 6 h 17.2
  #     hydro 4 f 7.6
  #     hydro 3 p 3.0
  #     hydro 1 s 0.65
  #  "Third tier"  - max. impr. -5.50 meV, min. impr. -0.47 meV
  #     hydro 4 f 29.2
  #     hydro 5 g 11.2
  #     hydro 3 d 6.8
  #     hydro 6 h 14.8
  #     hydro 2 p 2.3
  #     hydro 4 s 3.8
  #  "Fourth tier"  - max. impr. -0.58 meV, min. impr. -0.19 meV
  #     hydro 5 f 6.8
  #     hydro 5 d 14.8
  #     hydro 6 s 7.8
  #     hydro 5 g 20.8
  #     hydro 5 d 10.4
  #     hydro 5 p 9.8
  #  Further functions - -0.17 meV and below
  #     hydro 5 d 3.2
  ################################################################################
  #
  #  FHI-aims code project
  # Volker Blum, Fritz Haber Institute Berlin, 2009
  #
  #  Suggested "tight" defaults for S atom (to be pasted into control.in file)
  #
  #  Revised Jan 04, 2011, following tests (SiC) done by Lydia Nemec:
  #     d and g functions of tier 2 now enabled by default.
  #
  ################################################################################
    species        S
  #     global species definitions
      nucleus             16
      mass                32.065
  #
      l_hartree           6
  #
      cut_pot             4.0          2.0  1.0
      basis_dep_cutoff    1e-4
  #
      radial_base         44 7.0
      radial_multiplier   2
      angular_grids       specified
        division   0.4665  110
        division   0.5810  194
        division   0.7139  302
        division   0.8274  434
  #      division   0.9105  590
  #      division   1.0975  770
  #      division   1.2028  974
  #      outer_grid  974
        outer_grid  434
  ################################################################################
  #
  #  Definition of "minimal" basis
  #
  ################################################################################
  #     valence basis states
      valence      3  s   2.
      valence      3  p   4.
  #     ion occupancy
      ion_occ      3  s   1.
      ion_occ      3  p   3.
  ################################################################################
  #
  #  Suggested additional basis functions. For production calculations,
  #  uncomment them one after another (the most important basis functions are
  #  listed first).
  #
  #  Constructed for dimers: 1.6 A, 1.9 A, 2.5 A, 3.25 A, 4.0 A
  #
  ################################################################################
  #  "First tier" - improvements: -652.81 meV to -45.53 meV
       ionic 3 d auto
       hydro 2 p 1.8
       hydro 4 f 7
       ionic 3 s auto
  #  "Second tier" - improvements: -30.20 meV to -1.74 meV
       hydro 4 d 6.2
       hydro 5 g 10.8
  #     hydro 4 p 4.9
  #     hydro 5 f 10
  #     hydro 1 s 0.8
  #  "Third tier" - improvements: -1.04 meV to -0.20 meV
  #     hydro 3 d 3.9
  #     hydro 3 d 2.7
  #     hydro 5 g 12
  #     hydro 4 p 10.4
  #     hydro 5 f 12.4
  #     hydro 2 s 1.9
  #  "Fourth tier" - improvements: -0.35 meV to -0.06 meV
  #     hydro 4 d 10.4
  #     hydro 4 p 7.2
  #     hydro 4 d 10
  #     hydro 5 g 19.2
  #     hydro 4 s 12
  
  ################################################################################
  #
  # For methods that use the localized form of the "resolution of identity" for
  # the two-electron Coulomb operator (RI_method LVL), particularly Hartree-Fock and
  # hybrid density functional calculations, the highest accuracy can be obtained by
  # uncommenting the line beginning with "for_aux"  below, thus adding an extra g radial
  # function to the construction of the product basis set for the expansion.
  # See Ref. New J. Phys. 17, 093020 (2015) for more information, particularly Figs. 1 and 6.
  #
  ################################################################################
  #
  # for_aux hydro 5 g 6.0
  ################################################################################
  #
  #  FHI-aims code project
  # Volker Blum, Fritz Haber Institute Berlin, 2009
  #
  #  Suggested "tight" defaults for O atom (to be pasted into control.in file)
  #
  ################################################################################
    species        O
  #     global species definitions
      nucleus             8
      mass                15.9994
  #
      l_hartree           6
  #
      cut_pot             4.0  2.0  1.0
      basis_dep_cutoff    1e-4
  #
      radial_base         36 7.0
      radial_multiplier   2
       angular_grids specified
        division   0.1817   50
        division   0.3417  110
        division   0.4949  194
        division   0.6251  302
        division   0.8014  434
  #      division   0.8507  590
  #      division   0.8762  770
  #      division   0.9023  974
  #      division   1.2339 1202
  #      outer_grid 974
        outer_grid  434
  ################################################################################
  #
  #  Definition of "minimal" basis
  #
  ################################################################################
  #     valence basis states
      valence      2  s   2.
      valence      2  p   4.
  #     ion occupancy
      ion_occ      2  s   1.
      ion_occ      2  p   3.
  ################################################################################
  #
  #  Suggested additional basis functions. For production calculations,
  #  uncomment them one after another (the most important basis functions are
  #  listed first).
  #
  #  Constructed for dimers: 1.0 A, 1.208 A, 1.5 A, 2.0 A, 3.0 A
  #
  ################################################################################
  #  "First tier" - improvements: -699.05 meV to -159.38 meV
       hydro 2 p 1.8
       hydro 3 d 7.6
       hydro 3 s 6.4
  #  "Second tier" - improvements: -49.91 meV to -5.39 meV
       hydro 4 f 11.6
       hydro 3 p 6.2
       hydro 3 d 5.6
       hydro 5 g 17.6
       hydro 1 s 0.75
  #  "Third tier" - improvements: -2.83 meV to -0.50 meV
  #     ionic 2 p auto
  #     hydro 4 f 10.8
  #     hydro 4 d 4.7
  #     hydro 2 s 6.8
  #  "Fourth tier" - improvements: -0.40 meV to -0.12 meV
  #     hydro 3 p 5
  #     hydro 3 s 3.3
  #     hydro 5 g 15.6
  #     hydro 4 f 17.6
  #     hydro 4 d 14
  # Further basis functions - -0.08 meV and below
  #     hydro 3 s 2.1
  #     hydro 4 d 11.6
  #     hydro 3 p 16
  #     hydro 2 s 17.2
  ################################################################################
  #
  #  FHI-aims code project
  # Volker Blum, Fritz Haber Institute Berlin, 2009
  #
  #  Suggested "tight" defaults for H atom (to be pasted into control.in file)
  #
  ################################################################################
    species        H
  #     global species definitions
      nucleus             1
      mass                1.00794
  #
      l_hartree           6
  #
      cut_pot             4.0  2.0  1.0
      basis_dep_cutoff    1e-4
  #
      radial_base         24 7.0
      radial_multiplier   2
      angular_grids       specified
        division   0.1930   50
        division   0.3175  110
        division   0.4293  194
        division   0.5066  302
        division   0.5626  434
  #      division   0.5922  590
  #      division   0.6227  974
  #      division   0.6868 1202
  #      outer_grid  770
        outer_grid  434
  ################################################################################
  #
  #  Definition of "minimal" basis
  #
  ################################################################################
  #     valence basis states
      valence      1  s   1.
  #     ion occupancy
      ion_occ      1  s   0.5
  ################################################################################
  #
  #  Suggested additional basis functions. For production calculations,
  #  uncomment them one after another (the most important basis functions are
  #  listed first).
  #
  #  Basis constructed for dimers: 0.5 A, 0.7 A, 1.0 A, 1.5 A, 2.5 A
  #
  ################################################################################
  #  "First tier" - improvements: -1014.90 meV to -62.69 meV
       hydro 2 s 2.1
       hydro 2 p 3.5
  #  "Second tier" - improvements: -12.89 meV to -1.83 meV
       hydro 1 s 0.85
       hydro 2 p 3.7
       hydro 2 s 1.2
       hydro 3 d 7
  #  "Third tier" - improvements: -0.25 meV to -0.12 meV
  #     hydro 4 f 11.2
  #     hydro 3 p 4.8
  #     hydro 4 d 9
  #     hydro 3 s 3.2
  ################################################################################
  #
  # For methods that use the localized form of the "resolution of identity" for
  # the two-electron Coulomb operator (RI_method LVL), particularly Hartree-Fock and
  # hybrid density functional calculations, the highest accuracy can be obtained by
  # uncommenting the line beginning with "for_aux"  below, thus adding an extra g radial
  # function to the construction of the product basis set for the expansion.
  # See Ref. New J. Phys. 17, 093020 (2015) for more information, particularly Figs. 1 and 6.
  #
  ################################################################################
  #
  # for_aux hydro 5 g 6.0
  
  -----------------------------------------------------------------------
  Completed first pass over input file control.in .
  -----------------------------------------------------------------------
  
  
  -----------------------------------------------------------------------
  Parsing geometry.in (first pass over file, find array dimensions only).
  The contents of geometry.in will be repeated verbatim below
  unless switched off by setting 'verbatim_writeout .false.' .
  in the first line of geometry.in .
  -----------------------------------------------------------------------
  
  #
  # This is the geometry file that corresponds to the current relaxation step.
  # If you do not want this file to be written, set the "write_restart_geometry" flag to .false.
  #  aims_uuid : 4D833A2F-D4ED-4358-AB13-610BBB2CD211
  #
    set_vacuum_level        26.112428
  lattice_vector     18.95594913      0.00000000      0.00000000
    constrain_relaxation y
    constrain_relaxation z
  lattice_vector      0.00000000     21.88790891      0.00000000
    constrain_relaxation x
    constrain_relaxation z
  lattice_vector      0.00000000      0.00000000     30.00000000
    constrain_relaxation .true.
  atom       0.82182797      1.73618704     11.20825327 Mo
  atom       3.98336567      1.74156935     11.20172493 Mo
  atom       2.40464816      2.65231691     12.77407147 S
  atom       2.39792668      2.64618600      9.63399334 S
  atom       2.40128564      4.47273738     11.19983282 Mo
  atom       0.82409289      5.38764093     12.77109334 S
  atom       0.81938169      5.38019223      9.63073268 S
  atom       7.14130902      1.74806041     11.19070769 Mo
  atom       5.56885848      2.66561416     12.76258175 S
  atom       5.55575609      2.65194995      9.62287231 S
  atom       8.71980720      2.68118774     12.74706882 S
  atom       8.71977891      2.65203027      9.61195411 S
  atom       5.55830149      4.48368014     11.18332367 Mo
  atom       3.98773514      5.39025087     12.76228033 S
  atom       3.97208153      5.37858196      9.61960565 S
  atom       8.71980257      4.49685347     11.16014793 Mo
  atom       7.16667250      5.43223723     12.73324680 S
  atom       7.12319380      5.39487430      9.59054148 S
  atom       0.82453973      7.20735492     11.19593422 Mo
  atom       3.98808961      7.20125695     11.18110163 Mo
  atom       2.41598582      8.11981442     12.75779025 S
  atom       2.40129129      8.11294356      9.61838193 S
  atom       2.40944037      9.93888537     11.18482375 Mo
  atom       0.82907189     10.84945689     12.75850572 S
  atom       0.82173626     10.85282475      9.62143094 S
  atom       7.17765084      7.23009069     11.12569198 Mo
  atom       5.61339219      8.12077920     12.73138736 S
  atom       5.56137459      8.09925784      9.58889109 S
  atom       8.71980412      8.12130711     12.40629828 O
  atom       8.71978109      8.11975424      9.52078918 S
  atom       5.58060865      9.93206366     11.15706682 Mo
  atom       4.00612393     10.83986829     12.74210516 S
  atom       3.98358510     10.85365829      9.60739686 S
  atom       8.71980146      9.90095357     11.12454575 Mo
  atom       7.16678180     10.81010743     12.73043364 S
  atom       7.15799914     10.86496367      9.58802579 S
  atom      10.29828759      1.74805829     11.19067361 Mo
  atom      13.45622621      1.74157189     11.20166123 Mo
  atom      11.87075121      2.66561427     12.76253554 S
  atom      11.88382484      2.65194993      9.62281653 S
  atom      11.88129869      4.48366850     11.18327357 Mo
  atom      10.27295321      5.43224617     12.73322369 S
  atom      10.31638130      5.39487372      9.59051117 S
  atom      16.61776640      1.73618446     11.20822129 Mo
  atom      15.03493752      2.65231198     12.77402446 S
  atom      15.04168797      2.64618256      9.63394039 S
  atom      18.19776008      2.65050426     12.77709853 S
  atom      18.19778844      2.64579283      9.63800036 S
  atom      15.03830175      4.47273527     11.19978294 Mo
  atom      13.45186445      5.39025959     12.76222983 S
  atom      13.46752157      5.37858517      9.61955427 S
  atom      18.19777595      4.47234471     11.20438930 Mo
  atom      16.61548465      5.38764145     12.77106262 S
  atom      16.62024082      5.38019220      9.63071313 S
  atom      10.26195344      7.23008875     11.12565190 Mo
  atom      13.45151233      7.20126555     11.18104714 Mo
  atom      11.82621702      8.12078125     12.73134295 S
  atom      11.87821381      8.09925649      9.58884127 S
  atom      11.85900591      9.93206488     11.15701648 Mo
  atom      10.27285025     10.81011192     12.73039928 S
  atom      10.28158379     10.86495902      9.58799572 S
  atom      16.61506729      7.20736173     11.19590867 Mo
  atom      15.02360673      8.11981314     12.75775080 S
  atom      15.03832744      8.11293333      9.61832893 S
  atom      18.19776662      8.12078605     12.76475476 S
  atom      18.19779037      8.11570104      9.62617862 S
  atom      15.03017348      9.93886649     11.18477155 Mo
  atom      13.43349256     10.83987916     12.74203833 S
  atom      13.45603328     10.85365034      9.60733505 S
  atom      18.19778328      9.94082828     11.19238728 Mo
  atom      16.61051130     10.84946281     12.75847243 S
  atom      16.61789547     10.85282105      9.62140103 S
  atom       0.82427221     12.67533273     11.19258132 Mo
  atom       3.98898694     12.67298886     11.18561122 Mo
  atom       2.40925240     13.58049572     12.76119671 S
  atom       2.40301349     13.59209787      9.62393300 S
  atom       2.40407026     15.41185153     11.19941034 Mo
  atom       0.82354545     16.32026434     12.77152799 S
  atom       0.82221458     16.32813047      9.63393100 S
  atom       7.15037417     12.67661520     11.17987817 Mo
  atom       5.56967560     13.57660269     12.75793203 S
  atom       5.56579655     13.59448215      9.61865482 S
  atom       8.71981734     13.58387287     12.75947213 S
  atom       8.71978377     13.60240786      9.61709046 S
  atom       5.56371138     15.41183776     11.19719467 Mo
  atom       3.98465217     16.32100648     12.77000161 S
  atom       3.98243880     16.32923264      9.63212971 S
  atom       8.71981193     15.41663252     11.19673015 Mo
  atom       7.14120635     16.32535286     12.76922467 S
  atom       7.14058082     16.33271032      9.62976818 S
  atom       0.82238775     18.14976960     11.20704018 Mo
  atom       3.98274992     18.15134606     11.20508606 Mo
  atom       2.40355424     19.06204656     12.77616720 S
  atom       2.40140788     19.06474165      9.63833914 S
  atom       2.40252939     20.88909232     11.20830082 Mo
  atom       0.82284797     21.80011995     12.77888056 S
  atom       0.82085065     21.79893253      9.64013953 S
  atom       7.14071893     18.15438468     11.20279831 Mo
  atom       5.56263491     19.06699283     12.77327836 S
  atom       5.56011358     19.06680743      9.63510511 S
  atom       8.71981572     19.06964552     12.77119567 S
  atom       8.71977725     19.06735563      9.63302854 S
  atom       5.56175323     20.89284881     11.20328649 Mo
  atom       3.98503646     21.80632350     12.77423577 S
  atom       3.97951012     21.80179482      9.63585843 S
  atom       8.71979539     20.89472486     11.19967010 Mo
  atom       7.14292802     21.81422733     12.76692001 S
  atom       7.13882874     21.80286792      9.62919810 S
  atom      10.28923151     12.67661654     11.17984188 Mo
  atom      13.45060329     12.67299913     11.18554089 Mo
  atom      11.86994858     13.57661548     12.75787469 S
  atom      11.87379396     13.59447937      9.61858454 S
  atom      11.87588175     15.41184547     11.19712328 Mo
  atom      10.29843000     16.32535632     12.76919393 S
  atom      10.29899059     16.33270971      9.62971778 S
  atom      16.61534130     12.67532979     11.19254591 Mo
  atom      15.03034423     13.58049966     12.76112353 S
  atom      15.03661645     13.59208690      9.62387704 S
  atom      18.19776675     13.58268579     12.76425740 S
  atom      18.19779951     13.59114713      9.62673667 S
  atom      15.03553770     15.41186832     11.19933973 Mo
  atom      13.45495045     16.32100671     12.76992254 S
  atom      13.45716428     16.32922385      9.63204630 S
  atom      18.19777926     15.41184503     11.20078995 Mo
  atom      16.61603566     16.32026432     12.77149331 S
  atom      16.61743089     16.32812517      9.63388462 S
  atom      10.29888924     18.15438425     11.20275608 Mo
  atom      13.45685830     18.15134528     11.20500368 Mo
  atom      11.87698226     19.06699438     12.77321058 S
  atom      11.87946688     19.06680771      9.63503560 S
  atom      11.87785726     20.89285114     11.20322049 Mo
  atom      10.29669752     21.81422343     12.76688554 S
  atom      10.30073849     21.80286646      9.62916337 S
  atom      16.61721234     18.14976541     11.20699821 Mo
  atom      15.03603167     19.06204739     12.77610219 S
  atom      15.03821500     19.06474136      9.63826737 S
  atom      18.19775620     19.05990169     12.77764641 S
  atom      18.19779437     19.06356979      9.63939817 S
  atom      15.03705335     20.88909240     11.20823455 Mo
  atom      13.45456498     21.80632776     12.77417308 S
  atom      13.46009042     21.80180431      9.63578170 S
  atom      18.19777912     20.88677709     11.21021558 Mo
  atom      16.61672263     21.80011553     12.77884125 S
  atom      16.61877926     21.79893116      9.64010876 S
  atom       8.71986730      8.12240198     13.39475686 H
  #
  # What follows is the current estimated Hessian matrix constructed by the BFGS algorithm.
  # This is NOT the true Hessian matrix of the system.
  # If you do not want this information here, switch it off using the "hessian_to_restart_geometry" keyword.
  #
  trust_radius             0.0004378864
  hessian_block                1       1           9.550631           0.324428          -0.075766           0.324428          10.87942
  hessian_block                1       2          -0.323180           0.704179          -0.058593           0.422360           0.62039
  hessian_block                1       3          -1.768907          -0.837881          -1.406807          -0.886105          -1.00915
  hessian_block                1       4          -1.762593          -0.805758           1.496870          -0.882907          -1.00610
  hessian_block                1       5           0.729790          -1.261329          -0.087193          -0.287172          -0.64636
  hessian_block                1       6          -0.103817          -0.203739           0.046285          -0.020526           0.28568
  hessian_block                1       7          -0.102160          -0.202990           0.066052          -0.010643           0.31064
  hessian_block                1       8           0.145363           0.236012           0.068029          -1.100606           0.35430
  hessian_block                1       9           0.244819          -0.140928          -0.012296           0.156761          -0.15595
  hessian_block                1      10           0.215922          -0.164450          -0.008582           0.142688          -0.13483
  hessian_block                1      11          -0.217906           0.062843          -0.002005           0.021082           0.05843
  hessian_block                1      12          -0.197036           0.082973           0.022610          -0.012295           0.03028
  hessian_block                1      13          -1.320884           0.418525           0.060779          -0.364460          -0.54945
  hessian_block                1      14           0.091941           0.197431          -0.009782           0.090311           0.19809
  hessian_block                1      15           0.076094           0.209498           0.030927           0.072995           0.19957
  hessian_block                1      16           0.878083           0.038635          -0.063026           0.611296          -0.61826
  hessian_block                1      17           0.020447           0.106592          -0.037040          -0.017211           0.10257
  hessian_block                1      18           0.037582           0.043102          -0.049081           0.081287           0.10424
  hessian_block                1      19           0.194784           0.960208           0.005484           0.399128           0.96968
  hessian_block                1      20          -0.212298          -0.509622           0.125055           0.063947          -0.16691
  hessian_block                1      21           0.108001           0.059619          -0.018448          -0.057311          -0.08422
  hessian_block                1      22           0.077242           0.057241          -0.023064          -0.067681          -0.11217
  hessian_block                1      23          -0.387029          -0.959313           0.026138           0.258015           0.20566
  hessian_block                1      24          -0.079177          -0.053808           0.001449           0.069660           0.03654
  hessian_block                1      25          -0.080375          -0.065378           0.034295           0.070926           0.03598
  hessian_block                1      26           0.044199          -0.178822           0.014660          -0.248579           0.20220
  hessian_block                1      27           0.037676           0.118043          -0.044102           0.057673           0.01962
  hessian_block                1      28           0.129169           0.052595          -0.030208          -0.077534           0.00804
  hessian_block                1      29          -0.397227           0.029554           0.044701          -0.222515          -0.06878
  hessian_block                1      30           0.086744           0.066387          -0.031506           0.097823          -0.08895
  hessian_block                1      31          -0.148474           0.401504          -0.125413           0.433783           0.29646
  hessian_block                1      32           0.100350           0.092312          -0.000709           0.014655          -0.00033
  hessian_block                1      33           0.044816           0.096452           0.027139           0.055799           0.00270
  hessian_block                1      34          -0.110705           0.001963           0.090253          -0.046315           0.07238
  hessian_block                1      35          -0.103759          -0.158190           0.086266           0.029282          -0.02452
  hessian_block                1      36          -0.000532          -0.084319           0.043904           0.060108          -0.03560
  hessian_block                1      37          -0.317254          -0.488781          -0.005264           0.596545           0.27686
  hessian_block                1      38           0.608248          -0.026472           0.058939          -0.124372           0.01938
  hessian_block                1      39           0.083752           0.060628           0.000920           0.067796          -0.05071
  hessian_block                1      40           0.070289           0.052032          -0.022132           0.037251          -0.03498
  hessian_block                1      41          -0.171815          -0.238804          -0.067082          -0.629799           0.05850
  hessian_block                1      42           0.091320          -0.113769           0.066925          -0.021495          -0.07832
  hessian_block                1      43           0.076591          -0.039501           0.005332          -0.030588           0.04583
  hessian_block                1      44          -1.492770          -0.800877           0.060565           0.269095           0.94418
  hessian_block                1      45           0.129979           0.195526          -0.017052          -0.070929          -0.13954
  hessian_block                1      46           0.139568           0.180965          -0.023254          -0.079004          -0.13131
  hessian_block                1      47          -1.503987           0.682889           1.457779           0.757458          -0.80117
  hessian_block                1      48          -1.512112           0.676683          -1.447957           0.763268          -0.78566
  hessian_block                1      49          -0.164903           0.323699           0.025331           0.154545          -0.13358
  hessian_block                1      50          -0.073113          -0.018836           0.024302           0.043291          -0.01273
  hessian_block                1      51          -0.051632          -0.048707           0.025530           0.058598           0.00271
  hessian_block                1      52           0.231230           1.117409          -0.071646          -0.365769          -2.05409
  hessian_block                1      53          -0.070506          -0.078129           0.001119           0.086988           0.23153
  hessian_block                1      54          -0.061502          -0.082107          -0.011728           0.087938           0.23084
  hessian_block                1      55          -0.219560           0.055174           0.081021           0.191052           0.23917
  hessian_block                1      56           0.784623          -0.039454          -0.138664           0.132305           0.06756
  hessian_block                1      57           0.042504          -0.028736           0.010253           0.017252           0.05226
  hessian_block                1      58           0.012056           0.067498          -0.019901           0.011323          -0.00775
  hessian_block                1      59          -0.619453          -0.372083           0.013247          -0.759067          -0.11788
  hessian_block                1      60           0.203596           0.103851          -0.057453           0.112772           0.07628
  hessian_block                1      61           0.178595           0.064454          -0.054029           0.098568           0.18734
  hessian_block                1      62          -0.255729          -0.433985          -0.040207           0.033226           0.40802
  hessian_block                1      63          -0.152276           0.068840           0.039867          -0.120556          -0.02801
  hessian_block                1      64          -0.141868           0.058040           0.033489          -0.106577          -0.02084
  hessian_block                1      65          -0.062473          -0.204572           0.024567           0.056040          -0.09737
  hessian_block                1      66          -0.056618          -0.197980           0.024353           0.056353          -0.08829
  hessian_block                1      67           0.290827           0.153660          -0.153158           0.195429          -0.13049
  hessian_block                1      68           0.027687           0.022240           0.039971           0.183308           0.03169
  hessian_block                1      69           0.053817           0.022528           0.039812           0.194124           0.02483
  hessian_block                1      70           0.461745           0.725266          -0.097463          -0.302560          -0.72914
  hessian_block                1      71          -0.127787          -0.103393           0.044857           0.107396           0.13407
  hessian_block                1      72          -0.111748          -0.100405           0.012404           0.095019           0.12970
  hessian_block                1      73           0.300229           0.458251           0.075161          -0.416095           0.87492
  hessian_block                1      74           0.073226          -0.199610          -0.031695          -0.523434          -0.36797
  hessian_block                1      75          -0.120279           0.052019          -0.034421           0.117827           0.06667
  hessian_block                1      76          -0.127365           0.041323          -0.006747           0.099074           0.03934
  hessian_block                1      77           0.085624          -0.985076           0.043436          -0.166335          -1.02585
  hessian_block                1      78           0.112439          -0.007250          -0.021524           0.065332           0.20822
  hessian_block                1      79           0.108953          -0.018898          -0.018718           0.058515           0.19227
  hessian_block                1      80           0.056150           0.539256          -0.064943          -0.386142          -0.06319
  hessian_block                1      81           0.085531           0.021158           0.010529           0.030067           0.00002
  hessian_block                1      82           0.062560           0.036783           0.007548           0.035937          -0.01679
  hessian_block                1      83          -0.204420           0.006109           0.060930           0.022151          -0.00200
  hessian_block                1      84          -0.166512           0.011775           0.058281           0.016643          -0.02381
  hessian_block                1      85          -0.267056          -0.300831          -0.001510           0.323529           0.01389
  hessian_block                1      86          -0.007244           0.107705          -0.017428          -0.033483           0.10491
  hessian_block                1      87          -0.002844           0.110567          -0.006061          -0.034030           0.10704
  hessian_block                1      88           0.348445          -0.239658          -0.030541          -0.200738           0.40729
  hessian_block                1      89           0.003057           0.103463           0.016826           0.044726          -0.01930
  hessian_block                1      90           0.007238           0.120736           0.015167           0.051213          -0.01422
  hessian_block                1      91          -0.569046           0.142592          -0.025652          -0.182020           1.15014
  hessian_block                1      92           0.370043           0.490388           0.025091           0.386758           0.56419
  hessian_block                1      93          -0.051584           0.008801          -0.015920          -0.227317          -0.16752
  hessian_block                1      94          -0.054727           0.004197          -0.012515          -0.225992          -0.17446
  hessian_block                1      95           0.175089          -0.630763          -0.035210           0.803785          -1.24571
  hessian_block                1      96          -0.322821          -0.006783           0.004848          -0.011686          -1.79724
  hessian_block                1      97          -0.321053          -0.002931          -0.000434          -0.006463          -1.81095
  hessian_block                1      98          -0.594672           0.193993          -0.060674          -0.407290           0.03016
  hessian_block                1      99           0.196578          -0.179390           0.020519           0.002300          -0.12779
  hessian_block                1     100           0.193470          -0.165888           0.018022           0.007665          -0.12532
  hessian_block                1     101          -0.191916          -0.121483           0.022849          -0.096693          -0.11817
  hessian_block                1     102          -0.184567          -0.099575           0.019728          -0.088681          -0.11616
  hessian_block                1     103          -0.531281          -0.012997          -0.003252           0.128707          -0.18841
  hessian_block                1     104           0.167860           0.051220           0.012290          -0.156265           0.14828
  hessian_block                1     105           0.170536           0.075639           0.025551          -0.148666           0.15887
  hessian_block                1     106           0.391599           0.587495          -0.011974           0.466360          -0.03673
  hessian_block                1     107          -0.155392          -0.086557           0.006484           0.022741           0.04067
  hessian_block                1     108          -0.148685          -0.071369           0.002545           0.019953           0.05783
  hessian_block                1     109           0.044464          -0.218526          -0.018575           0.426887          -0.64504
  hessian_block                1     110           0.511994          -0.320463           0.026409          -0.110574           0.10812
  hessian_block                1     111          -0.040815          -0.104535          -0.044335          -0.149923          -0.00673
  hessian_block                1     112          -0.045830          -0.110713          -0.036411          -0.157182          -0.01480
  hessian_block                1     113          -0.277149           0.734146           0.003041           0.249735           0.52358
  hessian_block                1     114          -0.009126          -0.108609          -0.015740          -0.115149          -0.25968
  hessian_block                1     115          -0.009771          -0.104456          -0.018502          -0.110102          -0.25021
  hessian_block                1     116          -0.261134          -0.124227          -0.026394          -0.234036          -0.11369
  hessian_block                1     117          -0.065018           0.139657           0.011843          -0.056699          -0.10372
  hessian_block                1     118          -0.057018           0.127274          -0.015518          -0.048226          -0.11579
  hessian_block                1     119           0.077840          -0.153985          -0.005556           0.000482          -0.03854
  hessian_block                1     120           0.081132          -0.158078          -0.009688          -0.007029          -0.05405
  hessian_block                1     121           0.024255          -0.423948          -0.037399           0.047151           0.84652
  hessian_block                1     122           0.080165          -0.133170           0.019385          -0.057803          -0.05225
  hessian_block                1     123           0.079664          -0.143725           0.012321          -0.052485          -0.05386
  hessian_block                1     124          -0.174610           1.170284           0.035248           0.307643          -0.96151
  hessian_block                1     125          -0.090716           0.017982           0.007564          -0.013469          -0.11701
  hessian_block                1     126          -0.088042           0.016452           0.003635          -0.018624          -0.13231
  hessian_block                1     127           0.698939           0.128676           0.028852           0.555497           0.56250
  hessian_block                1     128          -0.319421           0.160338           0.000172           0.315268          -0.60703
  hessian_block                1     129          -0.070369           0.163499          -0.022550          -0.025686           0.00117
  hessian_block                1     130          -0.065330           0.161692          -0.023716          -0.024900          -0.00061
  hessian_block                1     131           0.161910          -0.939723           0.017335          -0.847846          -0.52656
  hessian_block                1     132           0.137543           0.102354          -0.017779          -0.073502           0.06919
  hessian_block                1     133           0.129853           0.088770          -0.021076          -0.066262           0.08246
  hessian_block                1     134           0.603144          -1.136192           0.051192          -0.005356           0.69935
  hessian_block                1     135           0.066548          -0.003314          -0.022078          -0.161583          -0.00840
  hessian_block                1     136           0.065452          -0.016050          -0.023030          -0.157638          -0.01730
  hessian_block                1     137          -0.012359           0.152622           0.001283           0.217787          -0.02957
  hessian_block                1     138          -0.017417           0.138312           0.006004           0.218998          -0.04191
  hessian_block                1     139          -0.453508           0.883523           0.037688           0.278903          -0.39649
  hessian_block                1     140          -0.104917          -0.035520          -0.003101           0.181528           0.14624
  hessian_block                1     141          -0.102031          -0.043670          -0.009216           0.188785           0.13894
  hessian_block                1     142          -0.064063           0.196779           0.065486          -1.184842          -1.99920
  hessian_block                1     143           0.383303          -0.011112          -0.042020           0.107204           0.31023
  hessian_block                1     144           0.379300          -0.035130          -0.037765           0.108261           0.29925
  hessian_block                1     145           0.099062          -0.039993           0.005545           0.054446           0.02546
  hessian_block                2       2           9.162648          -0.236569          -0.088859          -0.236569          10.02400
  hessian_block                2       3          -1.574191           0.625619           1.535286           0.722106          -0.89509
  hessian_block                2       4          -1.590187           0.627371          -1.421050           0.707188          -0.86514
  hessian_block                2       5          -0.068483           0.898648          -0.117863           0.051670          -0.16217
  hessian_block                2       6          -0.147143          -0.038029           0.064638           0.021685           0.17498
  hessian_block                2       7          -0.156035          -0.022811           0.054763           0.019428           0.18262
  hessian_block                2       8          -0.909363           0.595319          -0.013299          -0.174529           0.40625
  hessian_block                2       9          -1.533038          -0.783738          -1.422166          -0.779816          -0.77423
  hessian_block                2      10          -1.540369          -0.781850           1.472577          -0.746367          -0.80796
  hessian_block                2      11           0.107747          -0.168155          -0.068375           0.056970          -0.03095
  hessian_block                2      12           0.131650          -0.110629          -0.066606           0.048792          -0.03417
  hessian_block                2      13           0.116126          -0.549970          -0.005465          -0.104286          -0.53981
  hessian_block                2      14           0.019115           0.069201           0.010779           0.019781           0.08845
  hessian_block                2      15           0.011915           0.085884           0.034830           0.001383           0.09834
  hessian_block                2      16          -0.170855          -0.108320          -0.034491          -0.104036          -0.04351
  hessian_block                2      17           0.095907           0.039220          -0.103019           0.021610           0.05353
  hessian_block                2      18           0.038559          -0.035596          -0.109612           0.060320           0.02101
  hessian_block                2      19           0.381157           0.806501          -0.055814           0.409543          -0.60788
  hessian_block                2      20          -0.155758          -0.657674           0.087111           0.005961          -0.09848
  hessian_block                2      21           0.046188          -0.063605          -0.036583          -0.018878           0.13508
  hessian_block                2      22           0.050423          -0.122086          -0.017489          -0.045701           0.15638
  hessian_block                2      23          -0.447966           0.524815           0.036125          -0.359244           0.41218
  hessian_block                2      24           0.117074          -0.074204           0.047093           0.052605          -0.11673
  hessian_block                2      25           0.108391          -0.035566           0.058261           0.061180          -0.15136
  hessian_block                2      26          -0.177953          -0.323076           0.299084           0.148336          -0.17169
  hessian_block                2      27           0.033382           0.184526          -0.086344          -0.005502           0.07637
  hessian_block                2      28           0.023053           0.122179          -0.112302          -0.027687           0.00166
  hessian_block                2      29           0.091880           0.377794          -0.120529           0.082079           0.18749
  hessian_block                2      30           0.240539           0.028951          -0.132841           0.119139          -0.05138
  hessian_block                2      31           0.346563          -0.362631           0.002520          -0.146114          -0.19079
  hessian_block                2      32          -0.011855          -0.055097          -0.011655           0.031698          -0.13780
  hessian_block                2      33          -0.005238          -0.026425           0.033996           0.051086          -0.07642
  hessian_block                2      34          -0.359998          -0.238961           0.167141          -0.428456           0.24661
  hessian_block                2      35          -0.002052           0.114619           0.066375           0.000817           0.00036
  hessian_block                2      36           0.020273          -0.064324          -0.031703           0.074455           0.05115
  hessian_block                2      37           0.600847          -0.337933           0.124129          -0.055880          -0.60549
  hessian_block                2      38          -0.418501           0.203297           0.104816          -0.425606           0.39639
  hessian_block                2      39          -0.068434           0.058756           0.017805           0.020362           0.00877
  hessian_block                2      40          -0.071663           0.018125           0.020775           0.036967           0.00811
  hessian_block                2      41           0.013437           0.505594          -0.184816           0.231004           0.41350
  hessian_block                2      42          -0.043200           0.074428           0.061760          -0.008679           0.14637
  hessian_block                2      43           0.061518           0.022110           0.064023          -0.001985           0.01930
  hessian_block                2      44          -0.022044          -0.641075           0.075342           0.013261           1.27687
  hessian_block                2      45           0.065753           0.132781          -0.041712           0.092513          -0.03155
  hessian_block                2      46           0.044142           0.138041          -0.035351           0.095126          -0.03015
  hessian_block                2      47          -0.055791           0.206133           0.008553          -0.038346          -0.28334
  hessian_block                2      48          -0.054695           0.211231           0.012714          -0.035899          -0.28223
  hessian_block                2      49           0.170009          -0.181737          -0.069447          -0.084979          -0.89853
  hessian_block                2      50          -0.092042           0.110256           0.085238          -0.039564           0.07137
  hessian_block                2      51          -0.115875           0.119856           0.084589          -0.022859           0.04328
  hessian_block                2      52           0.229033          -0.851968          -0.044811          -0.426747          -0.66777
  hessian_block                2      53          -0.004480          -0.030693           0.027560           0.053331           0.05888
  hessian_block                2      54          -0.013974          -0.022809           0.027329           0.047791           0.06190
  hessian_block                2      55          -0.277444           0.167046           0.210549          -0.128910          -0.10161
  hessian_block                2      56           0.225309          -0.824804          -0.165217          -0.079467           0.12205
  hessian_block                2      57          -0.012988           0.129845          -0.074927           0.007061          -0.13076
  hessian_block                2      58          -0.004211           0.257102           0.007214          -0.033071          -0.03833
  hessian_block                2      59          -0.080111          -0.072312           0.093319           0.473193          -0.34756
  hessian_block                2      60           0.035960           0.026198          -0.094499          -0.031190           0.08778
  hessian_block                2      61           0.002721           0.216339          -0.019826           0.016788           0.13466
  hessian_block                2      62          -0.203336           0.587982          -0.035412           0.198593           0.50228
  hessian_block                2      63          -0.028453          -0.125586           0.051301           0.056087          -0.12846
  hessian_block                2      64          -0.048566          -0.093080           0.052683           0.048865          -0.07468
  hessian_block                2      65          -0.029419          -0.266004           0.032132          -0.127129           0.03169
  hessian_block                2      66          -0.034908          -0.258053           0.018772          -0.139547           0.05500
  hessian_block                2      67           0.305294           0.217183          -0.177790          -0.281081           0.26964
  hessian_block                2      68           0.050168          -0.108718           0.038251           0.014778          -0.01479
  hessian_block                2      69           0.043616          -0.131472           0.003916           0.017394          -0.02657
  hessian_block                2      70          -0.056888           0.152805          -0.118410           0.066461           0.33083
  hessian_block                2      71          -0.121330           0.031813           0.060198           0.002001          -0.18156
  hessian_block                2      72          -0.121634           0.003162           0.038422          -0.001617          -0.20317
  hessian_block                2      73          -0.280690          -0.057866          -0.038891           0.506216          -0.46991
  hessian_block                2      74           0.368668          -0.660213          -0.149998           0.190777           0.23705
  hessian_block                2      75           0.008504           0.014887           0.058734          -0.089147           0.18019
  hessian_block                2      76           0.008700           0.037446           0.061468          -0.091493           0.15545
  hessian_block                2      77          -0.523595           0.552932          -0.064630          -0.401454          -0.51667
  hessian_block                2      78          -0.055983          -0.032217          -0.006497           0.098908           0.14617
  hessian_block                2      79          -0.059531          -0.040470          -0.016042           0.085207           0.15660
  hessian_block                2      80           0.190267           0.632991          -0.138823           0.156197          -0.11157
  hessian_block                2      81          -0.060739           0.187715           0.026627          -0.086965           0.02434
  hessian_block                2      82          -0.056355           0.166966           0.031126          -0.081262          -0.03615
  hessian_block                2      83          -0.059894          -0.128386           0.068342          -0.058764           0.00930
  hessian_block                2      84          -0.053040          -0.146826           0.037149          -0.079015           0.05980
  hessian_block                2      85           0.087980          -1.060111           0.073836           0.163237          -0.20701
  hessian_block                2      86           0.055046           0.039195           0.009628          -0.055900           0.13827
  hessian_block                2      87           0.061670           0.050767          -0.003683          -0.056028           0.12726
  hessian_block                2      88          -0.150966           0.366294          -0.128069           0.448061          -0.14070
  hessian_block                2      89           0.043893           0.069302          -0.003443           0.002014           0.06178
  hessian_block                2      90           0.047149           0.064934          -0.010197          -0.001039           0.04800
  hessian_block                2      91           0.321954           0.270928          -0.043489           0.783914           0.10115
  hessian_block                2      92           0.211867           0.093205          -0.036908           0.418778           0.31288
  hessian_block                2      93          -0.044511          -0.039855          -0.009403          -0.045690          -0.01029
  hessian_block                2      94          -0.042667          -0.036109          -0.017018          -0.056021          -0.00104
  hessian_block                2      95          -0.118615          -0.352017           0.078232          -0.826508          -0.64704
  hessian_block                2      96           0.039623          -0.008343           0.005735           0.056565           0.26067
  hessian_block                2      97           0.049104          -0.011993          -0.008795           0.057690           0.27180
  hessian_block                2      98           0.277932           0.543663           0.046629          -0.764899           0.32020
  hessian_block                2      99           0.052564          -0.232216           0.010938          -0.082880          -0.04489
  hessian_block                2     100           0.054799          -0.234356          -0.000964          -0.077749          -0.04946
  hessian_block                2     101          -0.066006          -0.100482          -0.044016           0.154207          -0.06899
  hessian_block                2     102          -0.058044          -0.100300          -0.050942           0.160677          -0.07733
  hessian_block                2     103          -0.785821           0.448252           0.034580           0.877074          -0.92260
  hessian_block                2     104          -0.086097           0.000022           0.008093           0.028485          -1.96943
  hessian_block                2     105          -0.083530           0.009199          -0.018515           0.018220          -1.98733
  hessian_block                2     106           0.723716           0.016302          -0.028371          -0.022420          -0.19542
  hessian_block                2     107           0.208068          -0.076776           0.010576          -0.120667           0.13991
  hessian_block                2     108           0.212917          -0.088929           0.002549          -0.116835           0.17530
  hessian_block                2     109           0.293971          -0.413577          -0.054897          -0.003328          -0.13630
  hessian_block                2     110          -0.494481           0.377046          -0.050342          -0.210839          -0.44799
  hessian_block                2     111           0.045525          -0.079133           0.013925           0.024760           0.05147
  hessian_block                2     112           0.045291          -0.014545           0.031066           0.020399           0.03304
  hessian_block                2     113          -0.125611           0.087033           0.054526           0.213786          -0.00709
  hessian_block                2     114           0.120004          -0.098502           0.020765          -0.129251          -0.00435
  hessian_block                2     115           0.116407          -0.090317           0.031670          -0.131536          -0.00215
  hessian_block                2     116           0.515770          -0.374027           0.145234           0.248306           0.08254
  hessian_block                2     117          -0.030574          -0.055458           0.009251          -0.085366           0.10923
  hessian_block                2     118          -0.049565          -0.082044          -0.002300          -0.096028           0.10426
  hessian_block                2     119          -0.093117           0.235268          -0.050976          -0.024584           0.12275
  hessian_block                2     120          -0.081713           0.225358          -0.044307          -0.023489           0.12682
  hessian_block                2     121           0.298754           0.567686          -0.031443           0.599892           0.19212
  hessian_block                2     122          -0.200236          -0.066086          -0.035184          -0.014178          -0.18812
  hessian_block                2     123          -0.207117          -0.069714          -0.026470          -0.012911          -0.20640
  hessian_block                2     124           0.484360          -0.829657           0.030761          -0.965804          -0.07235
  hessian_block                2     125           0.075326           0.115523           0.029266           0.020600           0.00074
  hessian_block                2     126           0.081879           0.112017           0.040165           0.014533           0.00796
  hessian_block                2     127          -0.644295          -0.176938           0.036251          -0.135214           0.43979
  hessian_block                2     128           0.672252           0.006942           0.044908          -1.039481           1.39311
  hessian_block                2     129           0.106568           0.019583           0.024320           0.050687          -0.18212
  hessian_block                2     130           0.101195           0.023434           0.032987           0.056396          -0.20227
  hessian_block                2     131          -0.698515           0.378822          -0.064784           0.851187          -0.81526
  hessian_block                2     132          -0.176662          -0.017621          -0.014112          -0.108585           0.21107
  hessian_block                2     133          -0.176148          -0.026199           0.006795          -0.098591           0.23089
  hessian_block                2     134          -1.141167          -0.259209           0.111984           0.071939           0.61243
  hessian_block                2     135          -0.037659           0.216470          -0.053615           0.186509          -0.27187
  hessian_block                2     136          -0.037829           0.210642          -0.039939           0.184783          -0.27613
  hessian_block                2     137           0.070906          -0.007149           0.003640          -0.085051          -0.05726
  hessian_block                2     138           0.062744          -0.003183           0.008212          -0.096773          -0.05648
  hessian_block                2     139           0.809849          -0.624498           0.034387           0.251351          -1.10192
  hessian_block                2     140           0.032428          -0.016824          -0.019137          -0.120785           0.25819
  hessian_block                2     141           0.032412          -0.016909          -0.010673          -0.112713           0.26370
  hessian_block                2     142           0.174573          -0.002827          -0.039301          -0.315049          -1.23473
  hessian_block                2     143          -0.159341           0.249950          -0.017295           0.005147           0.25427
  hessian_block                2     144          -0.176294           0.256449          -0.001561          -0.008877           0.27085
  hessian_block                2     145           0.115030          -0.222873           0.064094           0.102818          -0.14604
  hessian_block                3       3           5.273865           0.043718          -0.056638           0.043718           5.27958
  hessian_block                3       4           0.175286           0.041533          -0.032893           0.056004           0.18072
  hessian_block                3       5          -0.639041          -0.110282           0.103565          -0.092356          -1.96890
  hessian_block                3       6           0.092938           0.136295          -0.028506           0.059032          -0.12419
  hessian_block                3       7           0.118083           0.119964          -0.028945           0.029830          -0.09665
  hessian_block                3       8           0.178273          -0.072452           0.067162           0.219623          -0.17024
  hessian_block                3       9          -0.138718           0.012649           0.004854          -0.030804           0.05540
  hessian_block                3      10          -0.070705           0.016377           0.000318          -0.025499           0.06527
  hessian_block                3      11           0.019507          -0.016457           0.010257          -0.043441          -0.03798
  hessian_block                3      12           0.016864          -0.012714           0.012271          -0.027691          -0.02788
  hessian_block                3      13           0.362053          -0.017432          -0.086682           0.151113           0.25034
  hessian_block                3      14           0.010525          -0.051886           0.000636          -0.023982          -0.07311
  hessian_block                3      15           0.046183          -0.003847          -0.004565           0.012444          -0.01565
  hessian_block                3      16          -0.112863           0.097145           0.035892          -0.044128           0.11879
  hessian_block                3      17          -0.054075          -0.061664           0.065859          -0.028076          -0.03135
  hessian_block                3      18          -0.053546          -0.060736           0.069552          -0.065534          -0.02524
  hessian_block                3      19          -0.182110          -0.373415          -0.021774           0.053071           0.02180
  hessian_block                3      20           0.088183           0.250274          -0.096748          -0.092310          -0.03194
  hessian_block                3      21          -0.021089           0.000739           0.028115          -0.000599           0.00040
  hessian_block                3      22          -0.001161           0.020535           0.028504           0.003754          -0.00252
  hessian_block                3      23           0.115856           0.078961          -0.012579          -0.048567          -0.04858
  hessian_block                3      24           0.004912           0.011539          -0.012758          -0.017645          -0.01750
  hessian_block                3      25           0.015755           0.026187          -0.021382          -0.021801          -0.01515
  hessian_block                3      26           0.123421           0.028415          -0.018231           0.075123          -0.07985
  hessian_block                3      27          -0.067250          -0.079805           0.050064          -0.019273          -0.02812
  hessian_block                3      28          -0.086852          -0.065894           0.072712           0.025826          -0.03672
  hessian_block                3      29           0.075031           0.001578          -0.015298           0.014396           0.02917
  hessian_block                3      30          -0.088713          -0.007008           0.083645          -0.060193           0.04607
  hessian_block                3      31           0.117641           0.007129           0.031801          -0.047699           0.04220
  hessian_block                3      32          -0.068043          -0.033118           0.001948           0.022416           0.00375
[...]
  |    98       41.528465        0.471535        8.153129       18.649532       14.615079        0.096211        0.014515
  |    99       16.236264       -0.236264        5.851239       10.095609        0.230659        0.048808        0.009949
  |   100       16.235729       -0.235729        5.851018       10.093973        0.231730        0.049024        0.009985
  |   101       16.236167       -0.236167        5.851208       10.095651        0.230564        0.048800        0.009944
  |   102       16.235735       -0.235735        5.851049       10.094174        0.231542        0.048993        0.009977
  |   103       41.528426        0.471574        8.153103       18.649556       14.615066        0.096193        0.014508
  |   104       16.236272       -0.236272        5.851287       10.095646        0.230581        0.048807        0.009951
  |   105       16.235742       -0.235742        5.850976       10.093869        0.231841        0.049063        0.009993
  |   106       41.528585        0.471415        8.153375       18.649540       14.614953        0.096209        0.014508
  |   107       16.236371       -0.236371        5.851168       10.095858        0.230646        0.048763        0.009936
  |   108       16.236039       -0.236039        5.851144       10.094961        0.231109        0.048868        0.009957
  |   109       41.527598        0.472402        8.152018       18.647958       14.617536        0.095646        0.014439
  |   110       41.529385        0.470615        8.153911       18.650134       14.614795        0.096063        0.014482
  |   111       16.237252       -0.237252        5.851282       10.097032        0.230230        0.048767        0.009941
  |   112       16.236112       -0.236112        5.850971       10.094636        0.231456        0.049056        0.009993
  |   113       41.528421        0.471579        8.152913       18.649449       14.615489        0.096072        0.014498
  |   114       16.236579       -0.236579        5.851271       10.095863        0.230704        0.048795        0.009946
  |   115       16.235928       -0.235928        5.850989       10.093923        0.231965        0.049059        0.009991
  |   116       41.528596        0.471404        8.153494       18.649665       14.614757        0.096180        0.014500
  |   117       16.236381       -0.236381        5.851143       10.095957        0.230602        0.048747        0.009933
  |   118       16.236124       -0.236124        5.851209       10.095375        0.230800        0.048794        0.009944
  |   119       16.236233       -0.236233        5.851172       10.095863        0.230491        0.048770        0.009937
  |   120       16.235850       -0.235850        5.851164       10.094849        0.231015        0.048868        0.009955
  |   121       41.528452        0.471548        8.153226       18.649649       14.614895        0.096179        0.014502
  |   122       16.236251       -0.236251        5.851259       10.095767        0.230495        0.048784        0.009946
  |   123       16.235776       -0.235776        5.851025       10.094210        0.231564        0.048996        0.009981
  |   124       41.528499        0.471501        8.153222       18.649634       14.614982        0.096161        0.014501
  |   125       16.236213       -0.236213        5.851216       10.095726        0.230546        0.048781        0.009943
  |   126       16.235801       -0.235801        5.851082       10.094426        0.231381        0.048943        0.009970
  |   127       41.528467        0.471533        8.153129       18.649532       14.615080        0.096210        0.014515
  |   128       41.528319        0.471681        8.153030       18.649546       14.615124        0.096118        0.014502
  |   129       16.236262       -0.236262        5.851238       10.095603        0.230664        0.048809        0.009949
  |   130       16.235730       -0.235730        5.851020       10.093979        0.231724        0.049023        0.009985
  |   131       41.528428        0.471572        8.153104       18.649557       14.615067        0.096192        0.014507
  |   132       16.236371       -0.236371        5.851169       10.095857        0.230647        0.048763        0.009936
  |   133       16.236040       -0.236040        5.851145       10.094965        0.231106        0.048867        0.009957
  |   134       41.528337        0.471663        8.153032       18.649547       14.615117        0.096137        0.014503
  |   135       16.236231       -0.236231        5.851254       10.095613        0.230613        0.048802        0.009948
  |   136       16.235762       -0.235762        5.851014       10.094074        0.231671        0.049019        0.009985
  |   137       16.236230       -0.236230        5.851257       10.095559        0.230649        0.048813        0.009951
  |   138       16.235766       -0.235766        5.851022       10.094018        0.231713        0.049028        0.009986
  |   139       41.528246        0.471754        8.152913       18.649496       14.615220        0.096112        0.014504
  |   140       16.236270       -0.236270        5.851286       10.095639        0.230586        0.048808        0.009951
  |   141       16.235743       -0.235743        5.850978       10.093874        0.231837        0.049062        0.009993
  |   142       41.528339        0.471661        8.152921       18.649474       14.615267        0.096167        0.014510
  |   143       16.236309       -0.236309        5.851281       10.095511        0.230734        0.048829        0.009954
  |   144       16.235720       -0.235720        5.850969       10.093653        0.232007        0.049094        0.009998
  |   145        0.761898        0.238102        0.667767        0.082926        0.011206
  |
  | Total     3545.000000       -0.000000
 
  Calculating angular momentum projected density of states ...
  | Chemical potential is  -4.405020 eV.
  | writing projected DOS (shifted by the chemical potential) for species Mo to file Mo_l_proj_dos.dat.
  | writing projected DOS (raw data) for species Mo to file Mo_l_proj_dos_raw.dat.
  | writing projected DOS (shifted by the chemical potential) for species S to file S_l_proj_dos.dat.
  | writing projected DOS (raw data) for species S to file S_l_proj_dos_raw.dat.
  | writing projected DOS (shifted by the chemical potential) for species O to file O_l_proj_dos.dat.
  | writing projected DOS (raw data) for species O to file O_l_proj_dos_raw.dat.
  | writing projected DOS (shifted by the chemical potential) for species H to file H_l_proj_dos.dat.
  | writing projected DOS (raw data) for species H to file H_l_proj_dos_raw.dat.
  Post-scf processing of Kohn-Sham eigenvalues on a denser k-point grid.
  | Using dos_kgrid_factors to calculate post-scf total density of states.
  | Electron chemical potential:    -4.405020285168 eV.
  Integrating Hamiltonian matrix: batch-based integration.
  Time summed over all CPUs for integration: real work      898.768 s, elapsed     1722.373 s => Consider using load balancing!
  Processing batch of k-points:     1     1     1
  Processing batch of k-points:     1     1     2
  Processing batch of k-points:     1     2     1
  Processing batch of k-points:     1     2     2
  Processing batch of k-points:     2     1     1
  Processing batch of k-points:     2     1     2
  Processing batch of k-points:     2     2     1
  Processing batch of k-points:     2     2     2
  | writing perturbative DOS (shifted by electron chemical potential) to file KS_dos_total.dat
  | writing perturbative DOS (raw data) to file KS_dos_total_raw.dat

  Perturbative DOS                                        :  max(cpu_time) wall_clock(cpu1)
  | Total Time                                            :       2965.329         2965.495
  ------------------------------------------------------------
  Plotting bands using SCALAPACK
  Integrating Hamiltonian matrix: batch-based integration.
  Time summed over all CPUs for integration: real work      911.990 s, elapsed     1711.890 s => Consider using load balancing!
  Solving hermitian generalised eigenvalue problem by standard ScaLAPACK.
  Transforming overlap matrix with ScaLAPACK and checking for singularities.
  k-point 1: Overlap matrix is nonsingular, using Cholesky decomposition
  | Lowest eigenvalue:  0.840525E-04
  Factoring overlap matrix with Cholesky decomposition
  Using Cholesky factor for transformation
  Using 2-stage complex ELPA solver
  Solving hermitian generalised eigenvalue problem by standard ScaLAPACK.
  Transforming overlap matrix with ScaLAPACK and checking for singularities.
  k-point 1: Overlap matrix is nonsingular, using Cholesky decomposition
  | Lowest eigenvalue:  0.840482E-04
  Factoring overlap matrix with Cholesky decomposition
  Using Cholesky factor for transformation
  Using 2-stage complex ELPA solver
  Solving hermitian generalised eigenvalue problem by standard ScaLAPACK.
  Transforming overlap matrix with ScaLAPACK and checking for singularities.
  k-point 1: Overlap matrix is nonsingular, using Cholesky decomposition
  | Lowest eigenvalue:  0.840413E-04
  Factoring overlap matrix with Cholesky decomposition
  Using Cholesky factor for transformation
  Using 2-stage complex ELPA solver
"Band gap" along reciprocal space direction number:    1
  |Lowest unoccupied state: -.4308E+01eV
  |Highest occupied state:   -.4402E+01eV

  Solving hermitian generalised eigenvalue problem by standard ScaLAPACK.
  Transforming overlap matrix with ScaLAPACK and checking for singularities.
  k-point 1: Overlap matrix is nonsingular, using Cholesky decomposition
  | Lowest eigenvalue:  0.840401E-04
  Factoring overlap matrix with Cholesky decomposition
  Using Cholesky factor for transformation
  Using 2-stage complex ELPA solver
  Solving hermitian generalised eigenvalue problem by standard ScaLAPACK.
  Transforming overlap matrix with ScaLAPACK and checking for singularities.
  k-point 1: Overlap matrix is nonsingular, using Cholesky decomposition
  | Lowest eigenvalue:  0.840408E-04
  Factoring overlap matrix with Cholesky decomposition
  Using Cholesky factor for transformation
  Using 2-stage complex ELPA solver
  Solving hermitian generalised eigenvalue problem by standard ScaLAPACK.
  Transforming overlap matrix with ScaLAPACK and checking for singularities.
  k-point 1: Overlap matrix is nonsingular, using Cholesky decomposition
  | Lowest eigenvalue:  0.840418E-04
  Factoring overlap matrix with Cholesky decomposition
  Using Cholesky factor for transformation
  Using 2-stage complex ELPA solver
"Band gap" along reciprocal space direction number:    2
  |Lowest unoccupied state: -.4400E+01eV
  |Highest occupied state:   -.4400E+01eV

  Solving hermitian generalised eigenvalue problem by standard ScaLAPACK.
  Transforming overlap matrix with ScaLAPACK and checking for singularities.
  k-point 1: Overlap matrix is nonsingular, using Cholesky decomposition
  | Lowest eigenvalue:  0.840420E-04
  Factoring overlap matrix with Cholesky decomposition
  Using Cholesky factor for transformation
  Using 2-stage complex ELPA solver
  Solving hermitian generalised eigenvalue problem by standard ScaLAPACK.
  Transforming overlap matrix with ScaLAPACK and checking for singularities.
  k-point 1: Overlap matrix is nonsingular, using Cholesky decomposition
  | Lowest eigenvalue:  0.840456E-04
  Factoring overlap matrix with Cholesky decomposition
  Using Cholesky factor for transformation
  Using 2-stage complex ELPA solver
  Solving hermitian generalised eigenvalue problem by standard ScaLAPACK.
  Transforming overlap matrix with ScaLAPACK and checking for singularities.
  k-point 1: Overlap matrix is nonsingular, using Cholesky decomposition
  | Lowest eigenvalue:  0.840515E-04
  Factoring overlap matrix with Cholesky decomposition
  Using Cholesky factor for transformation
  Using 2-stage complex ELPA solver
"Band gap" along reciprocal space direction number:    3
  |Lowest unoccupied state: -.4400E+01eV
  |Highest occupied state:   -.4401E+01eV

  Solving hermitian generalised eigenvalue problem by standard ScaLAPACK.
  Transforming overlap matrix with ScaLAPACK and checking for singularities.
  k-point 1: Overlap matrix is nonsingular, using Cholesky decomposition
  | Lowest eigenvalue:  0.840525E-04
  Factoring overlap matrix with Cholesky decomposition
  Using Cholesky factor for transformation
  Using 2-stage complex ELPA solver
  Solving hermitian generalised eigenvalue problem by standard ScaLAPACK.
  Transforming overlap matrix with ScaLAPACK and checking for singularities.
  k-point 1: Overlap matrix is nonsingular, using Cholesky decomposition
  | Lowest eigenvalue:  0.840532E-04
  Factoring overlap matrix with Cholesky decomposition
  Using Cholesky factor for transformation
  Using 2-stage complex ELPA solver
  Solving hermitian generalised eigenvalue problem by standard ScaLAPACK.
  Transforming overlap matrix with ScaLAPACK and checking for singularities.
  k-point 1: Overlap matrix is nonsingular, using Cholesky decomposition
  | Lowest eigenvalue:  0.840543E-04
  Factoring overlap matrix with Cholesky decomposition
  Using Cholesky factor for transformation
  Using 2-stage complex ELPA solver
"Band gap" along reciprocal space direction number:    4
  |Lowest unoccupied state: -.4308E+01eV
  |Highest occupied state:   -.4407E+01eV


  Band Structure                                          :  max(cpu_time) wall_clock(cpu1)
  | Total Time                                            :       3197.010         3197.274
  ------------------------------------------------------------

------------------------------------------------------------------------------
  Final output of selected total energy values:

  The following output summarizes some interesting total energy values
  at the end of a run (AFTER all relaxation, molecular dynamics, etc.).

  | Total energy of the DFT / Hartree-Fock s.c.f. calculation      :       -6375045.392272183 eV
  | Final zero-broadening corrected energy (caution - metals only) :       -6375045.394511397 eV
  | For reference only, the value of 1 Hartree used in FHI-aims is :             27.211384500 eV

  Before relying on these values, please be sure to understand exactly which
  total energy value is referred to by a given number. Different objects may
  all carry the same name 'total energy'. Definitions:

  Total energy of the DFT / Hartree-Fock s.c.f. calculation:
  | Note that this energy does not include ANY quantities calculated after the
  | s.c.f. cycle, in particular not ANY RPA, MP2, etc. many-body perturbation terms.

  Final zero-broadening corrected energy:
  | For metallic systems only, a broadening of the occupation numbers at the Fermi
  | level can be extrapolated back to zero broadening by an electron-gas inspired
  | formula. For all systems that are not real metals, this value can be
  | meaningless and should be avoided.

------------------------------------------------------------------------------
  Methods described in the following list of references were used in this FHI-aims run.
  If you publish the results, please make sure to cite these reference if they apply.
  FHI-aims is an academic code, and for our developers (often, Ph.D. students
  and postdocs), scientific credit in the community is essential.
  Thank you for helping us!

  For any use of FHI-aims, please cite:

    Volker Blum, Ralf Gehrke, Felix Hanke, Paula Havu, Ville Havu,
    Xinguo Ren, Karsten Reuter, and Matthias Scheffler
    'Ab initio molecular simulations with numeric atom-centered orbitals'
    Computer Physics Communications 180, 2175-2196 (2009)
    http://dx.doi.org/10.1016/j.cpc.2009.06.022


  For the analytical stress tensor used in your run, please cite:

    Franz Knuth, Christian Carbogno, Viktor Atalla, Volker Blum, Matthias Scheffler
    'All-electron formalism for total energy strain derivatives and
    stress tensor components for numeric atom-centered orbitals'
    Computer Physics Communications 190, 33-50 (2015).
    http://dx.doi.org/10.1016/j.cpc.2015.01.003


  The scalable eigensolver library ELPA was used in your run.
  ELPA is essential especially for large systems on hundreds or thousands of CPUs.
  For ELPA, please cite:

    Andreas Marek, Volker Blum, Rainer Johanni, Ville Havu, Bruno Lang,
    Thomas Auckenthaler, Alexander Heinecke, Hans-Joachim Bungartz, and Hermann Lederer,
    'The ELPA Library - Scalable Parallel Eigenvalue Solutions
    for Electronic Structure Theory and Computational Science'
    The Journal of Physics: Condensed Matter 26, 213201 (2014).
    http://dx.doi.org/10.1088/0953-8984/26/21/213201


  For ELPA's efficient two-stage tridiagonalization used in your run, please cite:

    T. Auckenthaler, V. Blum, H.-J. Bungartz, T. Huckle, R. Johanni, L. Kraemer,
    B. Lang, H. Lederer, and P. R. Willems,
    'Parallel solution of partial symmetric eigenvalue problems'
    'from  electronic structure calculations'
    Parallel Computing 37, 783-794 (2011).
    http://dx.doi.org/10.1016/j.parco.2011.05.002


  For the real-space grid partitioning and parallelization used in this calculation, please cite:

    Ville Havu, Volker Blum, Paula Havu, and Matthias Scheffler,
    'Efficient O(N) integration for all-electron electronic structure calculation'
    'using numerically tabulated basis functions'
    Journal of Computational Physics 228, 8367-8379 (2009).
    http://dx.doi.org/10.1016/j.jcp.2009.08.008

  Of course, there are many other important community references, e.g., those cited in the
  above references. Our list is limited to references that describe implementations in the
  FHI-aims code. The reason is purely practical (length of this list) - please credit others as well.

------------------------------------------------------------
          Leaving FHI-aims.
          Date     :  20200402, Time     :  004646.978

          Computational steps:
          | Number of self-consistency cycles          :           37
          | Number of relaxation steps                 :            0

          Detailed time accounting                     :  max(cpu_time)    wall_clock(cpu1)
          | Total time                                 :    11109.335 s       11109.393 s
          | Preparation time                           :        0.771 s           1.546 s
          | Boundary condition initalization           :        2.866 s           2.866 s
          | Grid partitioning                          :        5.699 s           5.679 s
          | Preloading free-atom quantities on grid    :        0.042 s           0.077 s
          | Free-atom superposition energy             :        0.408 s           0.412 s
          | Total time for integrations                :      285.861 s         285.943 s
          | Total time for solution of K.-S. equations :     3006.797 s        3006.549 s
          | Total time for EV reorthonormalization     :        0.000 s           0.000 s
          | Total time for density & force components  :     1185.456 s        1185.709 s
          | Total time for mixing & preconditioning    :       71.684 s          71.893 s
          | Total time for Hartree multipole update    :       76.840 s          76.972 s
          | Total time for Hartree multipole sum       :      273.071 s         273.306 s
          | Total time for total energy evaluation     :        0.309 s           0.833 s
          | Total time for scaled ZORA corrections     :        0.000 s           0.000 s
          | Total time for vdW correction              :       12.403 s          12.411 s
          | Total time for band structures, DOS        :     6163.023 s        6162.769 s

          Have a nice day.
------------------------------------------------------------
