  MPI-parallelism will be employed.
------------------------------------------------------------
          Invoking FHI-aims ...
          Version 170329
          Git rev.: 67224d2 PGI compatibility fixes.
          Compiled on 2017/04/04 at 21:21:26 on host access.grid.unesp.br.

          When using FHI-aims, please cite the following reference:

          Volker Blum, Ralf Gehrke, Felix Hanke, Paula Havu,
          Ville Havu, Xinguo Ren, Karsten Reuter, and Matthias Scheffler,
          'Ab Initio Molecular Simulations with Numeric Atom-Centered Orbitals',
          Computer Physics Communications 180, 2175-2196 (2009)

          For any questions about FHI-aims, please visit the aimsclub website
          with its forums and wiki. Contributions to both the forums and the
          wiki are warmly encouraged - they are for you, and everyone is welcome there.

------------------------------------------------------------



  Date     :  20200401, Time     :  162627.700
  Time zero on CPU 1             :   0.203253000000000E+00  s.
  Internal wall clock time zero  :           354990387.700  s.

  FHI-aims created a unique identifier for this run for later identification
  aims_uuid : FC4C6232-86DC-4120-AF99-B9F3EEEC41A6

  Using      200 parallel tasks.
  Task        0 on host node013 reporting.
  Task        1 on host node013 reporting.
  Task        2 on host node013 reporting.
  Task        3 on host node013 reporting.
  Task        4 on host node013 reporting.
  Task        5 on host node013 reporting.
  Task        6 on host node013 reporting.
  Task        7 on host node013 reporting.
  Task        8 on host node013 reporting.
  Task        9 on host node013 reporting.
  Task       10 on host node013 reporting.
  Task       11 on host node013 reporting.
  Task       12 on host node013 reporting.
  Task       13 on host node013 reporting.
  Task       14 on host node013 reporting.
  Task       15 on host node013 reporting.
  Task       16 on host node036 reporting.
  Task       17 on host node036 reporting.
  Task       18 on host node036 reporting.
  Task       19 on host node036 reporting.
  Task       20 on host node036 reporting.
  Task       21 on host node036 reporting.
  Task       22 on host node036 reporting.
  Task       23 on host node036 reporting.
  Task       24 on host node036 reporting.
  Task       25 on host node036 reporting.
  Task       26 on host node036 reporting.
  Task       27 on host node036 reporting.
  Task       28 on host node036 reporting.
  Task       29 on host node036 reporting.
  Task       30 on host node036 reporting.
  Task       31 on host node036 reporting.
  Task       32 on host node036 reporting.
  Task       33 on host node036 reporting.
  Task       34 on host node036 reporting.
  Task       35 on host node036 reporting.
  Task       36 on host node036 reporting.
  Task       37 on host node036 reporting.
  Task       38 on host node036 reporting.
  Task       39 on host node036 reporting.
  Task       40 on host node036 reporting.
  Task       41 on host node036 reporting.
  Task       42 on host node036 reporting.
  Task       43 on host node036 reporting.
  Task       44 on host node036 reporting.
  Task       45 on host node036 reporting.
  Task       46 on host node036 reporting.
  Task       47 on host node036 reporting.
  Task       48 on host node036 reporting.
  Task       49 on host node036 reporting.
  Task       50 on host node036 reporting.
  Task       51 on host node036 reporting.
  Task       52 on host node036 reporting.
  Task       53 on host node036 reporting.
  Task       54 on host node036 reporting.
  Task       55 on host node036 reporting.
  Task       56 on host node036 reporting.
  Task       57 on host node036 reporting.
  Task       58 on host node036 reporting.
  Task       59 on host node036 reporting.
  Task       60 on host node036 reporting.
  Task       61 on host node036 reporting.
  Task       62 on host node036 reporting.
  Task       63 on host node036 reporting.
  Task       64 on host node037 reporting.
  Task       65 on host node037 reporting.
  Task       66 on host node037 reporting.
  Task       67 on host node037 reporting.
  Task       68 on host node037 reporting.
  Task       69 on host node037 reporting.
  Task       70 on host node037 reporting.
  Task       71 on host node037 reporting.
  Task       72 on host node038 reporting.
  Task       73 on host node038 reporting.
  Task       74 on host node038 reporting.
  Task       75 on host node038 reporting.
  Task       76 on host node038 reporting.
  Task       77 on host node038 reporting.
  Task       78 on host node038 reporting.
  Task       79 on host node038 reporting.
  Task       80 on host node038 reporting.
  Task       81 on host node038 reporting.
  Task       82 on host node038 reporting.
  Task       83 on host node038 reporting.
  Task       84 on host node038 reporting.
  Task       85 on host node038 reporting.
  Task       86 on host node038 reporting.
  Task       87 on host node038 reporting.
  Task       88 on host node038 reporting.
  Task       89 on host node038 reporting.
  Task       90 on host node039 reporting.
  Task       91 on host node039 reporting.
  Task       92 on host node048 reporting.
  Task       93 on host node048 reporting.
  Task       94 on host node048 reporting.
  Task       95 on host node048 reporting.
  Task       96 on host node048 reporting.
  Task       97 on host node048 reporting.
  Task       98 on host node048 reporting.
  Task       99 on host node048 reporting.
  Task      100 on host node048 reporting.
  Task      101 on host node048 reporting.
  Task      102 on host node049 reporting.
  Task      103 on host node049 reporting.
  Task      104 on host node049 reporting.
  Task      105 on host node049 reporting.
  Task      106 on host node049 reporting.
  Task      107 on host node049 reporting.
  Task      108 on host node049 reporting.
  Task      109 on host node049 reporting.
  Task      110 on host node049 reporting.
  Task      111 on host node049 reporting.
  Task      112 on host node049 reporting.
  Task      113 on host node049 reporting.
  Task      114 on host node049 reporting.
  Task      115 on host node049 reporting.
  Task      116 on host node049 reporting.
  Task      117 on host node049 reporting.
  Task      118 on host node049 reporting.
  Task      119 on host node049 reporting.
  Task      120 on host node049 reporting.
  Task      121 on host node049 reporting.
  Task      122 on host node049 reporting.
  Task      123 on host node049 reporting.
  Task      124 on host node049 reporting.
  Task      125 on host node049 reporting.
  Task      126 on host node049 reporting.
  Task      127 on host node049 reporting.
  Task      128 on host node049 reporting.
  Task      129 on host node049 reporting.
  Task      130 on host node049 reporting.
  Task      131 on host node049 reporting.
  Task      132 on host node049 reporting.
  Task      133 on host node049 reporting.
  Task      134 on host node050 reporting.
  Task      135 on host node050 reporting.
  Task      136 on host node050 reporting.
  Task      137 on host node050 reporting.
  Task      138 on host node050 reporting.
  Task      139 on host node050 reporting.
  Task      140 on host node050 reporting.
  Task      141 on host node050 reporting.
  Task      142 on host node050 reporting.
  Task      143 on host node050 reporting.
  Task      144 on host node050 reporting.
  Task      145 on host node050 reporting.
  Task      146 on host node051 reporting.
  Task      147 on host node051 reporting.
  Task      148 on host node051 reporting.
  Task      149 on host node051 reporting.
  Task      150 on host node051 reporting.
  Task      151 on host node051 reporting.
  Task      152 on host node051 reporting.
  Task      153 on host node051 reporting.
  Task      154 on host node051 reporting.
  Task      155 on host node051 reporting.
  Task      156 on host node051 reporting.
  Task      157 on host node051 reporting.
  Task      158 on host node051 reporting.
  Task      159 on host node051 reporting.
  Task      160 on host node051 reporting.
  Task      161 on host node051 reporting.
  Task      162 on host node051 reporting.
  Task      163 on host node051 reporting.
  Task      164 on host node051 reporting.
  Task      165 on host node051 reporting.
  Task      166 on host node051 reporting.
  Task      167 on host node051 reporting.
  Task      168 on host node051 reporting.
  Task      169 on host node051 reporting.
  Task      170 on host node052 reporting.
  Task      171 on host node052 reporting.
  Task      172 on host node052 reporting.
  Task      173 on host node052 reporting.
  Task      174 on host node052 reporting.
  Task      175 on host node052 reporting.
  Task      176 on host node052 reporting.
  Task      177 on host node052 reporting.
  Task      178 on host node053 reporting.
  Task      179 on host node053 reporting.
  Task      180 on host node053 reporting.
  Task      181 on host node053 reporting.
  Task      182 on host node053 reporting.
  Task      183 on host node053 reporting.
  Task      184 on host node053 reporting.
  Task      185 on host node053 reporting.
  Task      186 on host node053 reporting.
  Task      187 on host node053 reporting.
  Task      188 on host node053 reporting.
  Task      189 on host node053 reporting.
  Task      190 on host node053 reporting.
  Task      191 on host node053 reporting.
  Task      192 on host node053 reporting.
  Task      193 on host node053 reporting.
  Task      194 on host node053 reporting.
  Task      195 on host node053 reporting.
  Task      196 on host node053 reporting.
  Task      197 on host node053 reporting.
  Task      198 on host node053 reporting.
  Task      199 on host node053 reporting.

  Performing system and environment tests:
  *** Environment variable OMP_NUM_THREADS is not set
  *** For performance reasons you might want to set it to 1
  | Stacksize not measured: no C compiler
  | Checking for scalapack...
  | Testing pdtran()...
  | All pdtran() tests passed.

  Obtaining array dimensions for all initial allocations:
  
  -----------------------------------------------------------------------
  Parsing control.in (first pass over file, find array dimensions only).
  The contents of control.in will be repeated verbatim below
  unless switched off by setting 'verbatim_writeout .false.' .
  in the first line of control.in .
  -----------------------------------------------------------------------
  
  #
   xc pbe
   vdw_correction_hirshfeld
   relativistic atomic_zora scalar
  #
   occupation_type gaussian 0.01
   n_max_pulay 8
   charge_mix_param 0.2
   sc_accuracy_rho 1e-6
   sc_accuracy_eev 1e-4
  #
   relax_geometry bfgs 5e-4
   relax_unit_cell full
  #
  use_dipole_correction
  #
  sc_accuracy_forces 1e-5
  sc_accuracy_stress 1e-5
  #
    k_grid 2 2 2
  #
     output species_proj_dos -10 10 1000 0.1
     output dos              -10 10 1000 0.1
     dos_kgrid_factors  2 2 2
  #
  output band   0.000  0.000  0.000   0.500  0.000  0.000   21	  Gamma      X
  output band   0.500  0.000  0.000   0.500  0.500  0.000   21	  X	 S
  output band   0.500  0.500  0.000   0.000  0.000  0.000   21	  S	 Gamma
  output band   0.000  0.000  0.000   0.000  0.500  0.000   21	  Gamma  Y
  
  ################################################################################
  #
  #  FHI-aims code project
  # Volker Blum, Fritz Haber Institute Berlin, 2009
  #
  #  Suggested "tight" defaults for Mo atom (to be pasted into control.in file)
  #
  ################################################################################
    species        Mo
  #     global species definitions
      nucleus             42
      mass                95.94
  #
      l_hartree           6
  #
      cut_pot             4.0  2.0  1.0
      basis_dep_cutoff    1e-4
  #
      radial_base         59 7.0
      radial_multiplier   2
      angular_grids specified
        division   0.3117   50
        division   0.6750  110
        division   1.0351  194
        division   1.2073  302
        division   1.6402  434
  #      division   1.9185  590
  #      division   2.0237  770
  #      division   2.0980  974
  #      division   2.7972 1202
  #      outer_grid  974
        outer_grid  434
  ################################################################################
  #
  #  Definition of "minimal" basis
  #
  ################################################################################
  #     valence basis states
      valence      5  s   1.
      valence      4  p   6.
      valence      4  d   5.
  #     ion occupancy
      ion_occ     5  s   0.
      ion_occ     4  p   6.
      ion_occ     4  d   4.
  ################################################################################
  #
  #  Suggested additional basis functions. For production calculations,
  #  uncomment them one after another (the most important basis functions are
  #  listed first).
  #
  #  Constructed for dimers: 1.675 A, 1.9 A, 2.375 A, 3.00 A, 4.00 A
  #
  ################################################################################
  #  "First tier"  - max. impr. -711.23  meV, min. impr. -21.07 meV
       hydro 4 f 8.4
       hydro 3 d 2.8
       ionic 5 p auto
       hydro 5 g 12
       ionic 5 s auto
  #  "Second tier" - max. impr. -39.38  meV, min. impr. -2.68 meV
  #     hydro 4 f 12.4
  #     hydro 3 d 3.3
  #     hydro 6 h 17.2
  #     hydro 4 f 7.6
  #     hydro 3 p 3.0
  #     hydro 1 s 0.65
  #  "Third tier"  - max. impr. -5.50 meV, min. impr. -0.47 meV
  #     hydro 4 f 29.2
  #     hydro 5 g 11.2
  #     hydro 3 d 6.8
  #     hydro 6 h 14.8
  #     hydro 2 p 2.3
  #     hydro 4 s 3.8
  #  "Fourth tier"  - max. impr. -0.58 meV, min. impr. -0.19 meV
  #     hydro 5 f 6.8
  #     hydro 5 d 14.8
  #     hydro 6 s 7.8
  #     hydro 5 g 20.8
  #     hydro 5 d 10.4
  #     hydro 5 p 9.8
  #  Further functions - -0.17 meV and below
  #     hydro 5 d 3.2
  ################################################################################
  #
  #  FHI-aims code project
  # Volker Blum, Fritz Haber Institute Berlin, 2009
  #
  #  Suggested "tight" defaults for S atom (to be pasted into control.in file)
  #
  #  Revised Jan 04, 2011, following tests (SiC) done by Lydia Nemec:
  #     d and g functions of tier 2 now enabled by default.
  #
  ################################################################################
    species        S
  #     global species definitions
      nucleus             16
      mass                32.065
  #
      l_hartree           6
  #
      cut_pot             4.0          2.0  1.0
      basis_dep_cutoff    1e-4
  #
      radial_base         44 7.0
      radial_multiplier   2
      angular_grids       specified
        division   0.4665  110
        division   0.5810  194
        division   0.7139  302
        division   0.8274  434
  #      division   0.9105  590
  #      division   1.0975  770
  #      division   1.2028  974
  #      outer_grid  974
        outer_grid  434
  ################################################################################
  #
  #  Definition of "minimal" basis
  #
  ################################################################################
  #     valence basis states
      valence      3  s   2.
      valence      3  p   4.
  #     ion occupancy
      ion_occ      3  s   1.
      ion_occ      3  p   3.
  ################################################################################
  #
  #  Suggested additional basis functions. For production calculations,
  #  uncomment them one after another (the most important basis functions are
  #  listed first).
  #
  #  Constructed for dimers: 1.6 A, 1.9 A, 2.5 A, 3.25 A, 4.0 A
  #
  ################################################################################
  #  "First tier" - improvements: -652.81 meV to -45.53 meV
       ionic 3 d auto
       hydro 2 p 1.8
       hydro 4 f 7
       ionic 3 s auto
  #  "Second tier" - improvements: -30.20 meV to -1.74 meV
       hydro 4 d 6.2
       hydro 5 g 10.8
  #     hydro 4 p 4.9
  #     hydro 5 f 10
  #     hydro 1 s 0.8
  #  "Third tier" - improvements: -1.04 meV to -0.20 meV
  #     hydro 3 d 3.9
  #     hydro 3 d 2.7
  #     hydro 5 g 12
  #     hydro 4 p 10.4
  #     hydro 5 f 12.4
  #     hydro 2 s 1.9
  #  "Fourth tier" - improvements: -0.35 meV to -0.06 meV
  #     hydro 4 d 10.4
  #     hydro 4 p 7.2
  #     hydro 4 d 10
  #     hydro 5 g 19.2
  #     hydro 4 s 12
  
  ################################################################################
  #
  # For methods that use the localized form of the "resolution of identity" for
  # the two-electron Coulomb operator (RI_method LVL), particularly Hartree-Fock and
  # hybrid density functional calculations, the highest accuracy can be obtained by
  # uncommenting the line beginning with "for_aux"  below, thus adding an extra g radial
  # function to the construction of the product basis set for the expansion.
  # See Ref. New J. Phys. 17, 093020 (2015) for more information, particularly Figs. 1 and 6.
  #
  ################################################################################
  #
  # for_aux hydro 5 g 6.0
  ################################################################################
  #
  #  FHI-aims code project
  # Volker Blum, Fritz Haber Institute Berlin, 2009
  #
  #  Suggested "tight" defaults for O atom (to be pasted into control.in file)
  #
  ################################################################################
    species        O
  #     global species definitions
      nucleus             8
      mass                15.9994
  #
      l_hartree           6
  #
      cut_pot             4.0  2.0  1.0
      basis_dep_cutoff    1e-4
  #
      radial_base         36 7.0
      radial_multiplier   2
       angular_grids specified
        division   0.1817   50
        division   0.3417  110
        division   0.4949  194
        division   0.6251  302
        division   0.8014  434
  #      division   0.8507  590
  #      division   0.8762  770
  #      division   0.9023  974
  #      division   1.2339 1202
  #      outer_grid 974
        outer_grid  434
  ################################################################################
  #
  #  Definition of "minimal" basis
  #
  ################################################################################
  #     valence basis states
      valence      2  s   2.
      valence      2  p   4.
  #     ion occupancy
      ion_occ      2  s   1.
      ion_occ      2  p   3.
  ################################################################################
  #
  #  Suggested additional basis functions. For production calculations,
  #  uncomment them one after another (the most important basis functions are
  #  listed first).
  #
  #  Constructed for dimers: 1.0 A, 1.208 A, 1.5 A, 2.0 A, 3.0 A
  #
  ################################################################################
  #  "First tier" - improvements: -699.05 meV to -159.38 meV
       hydro 2 p 1.8
       hydro 3 d 7.6
       hydro 3 s 6.4
  #  "Second tier" - improvements: -49.91 meV to -5.39 meV
       hydro 4 f 11.6
       hydro 3 p 6.2
       hydro 3 d 5.6
       hydro 5 g 17.6
       hydro 1 s 0.75
  #  "Third tier" - improvements: -2.83 meV to -0.50 meV
  #     ionic 2 p auto
  #     hydro 4 f 10.8
  #     hydro 4 d 4.7
  #     hydro 2 s 6.8
  #  "Fourth tier" - improvements: -0.40 meV to -0.12 meV
  #     hydro 3 p 5
  #     hydro 3 s 3.3
  #     hydro 5 g 15.6
  #     hydro 4 f 17.6
  #     hydro 4 d 14
  # Further basis functions - -0.08 meV and below
  #     hydro 3 s 2.1
  #     hydro 4 d 11.6
  #     hydro 3 p 16
  #     hydro 2 s 17.2
  ################################################################################
  #
  #  FHI-aims code project
  # Volker Blum, Fritz Haber Institute Berlin, 2009
  #
  #  Suggested "tight" defaults for H atom (to be pasted into control.in file)
  #
  ################################################################################
    species        H
  #     global species definitions
      nucleus             1
      mass                1.00794
  #
      l_hartree           6
  #
      cut_pot             4.0  2.0  1.0
      basis_dep_cutoff    1e-4
  #
      radial_base         24 7.0
      radial_multiplier   2
      angular_grids       specified
        division   0.1930   50
        division   0.3175  110
        division   0.4293  194
        division   0.5066  302
        division   0.5626  434
  #      division   0.5922  590
  #      division   0.6227  974
  #      division   0.6868 1202
  #      outer_grid  770
        outer_grid  434
  ################################################################################
  #
  #  Definition of "minimal" basis
  #
  ################################################################################
  #     valence basis states
      valence      1  s   1.
  #     ion occupancy
      ion_occ      1  s   0.5
  ################################################################################
  #
  #  Suggested additional basis functions. For production calculations,
  #  uncomment them one after another (the most important basis functions are
  #  listed first).
  #
  #  Basis constructed for dimers: 0.5 A, 0.7 A, 1.0 A, 1.5 A, 2.5 A
  #
  ################################################################################
  #  "First tier" - improvements: -1014.90 meV to -62.69 meV
       hydro 2 s 2.1
       hydro 2 p 3.5
  #  "Second tier" - improvements: -12.89 meV to -1.83 meV
       hydro 1 s 0.85
       hydro 2 p 3.7
       hydro 2 s 1.2
       hydro 3 d 7
  #  "Third tier" - improvements: -0.25 meV to -0.12 meV
  #     hydro 4 f 11.2
  #     hydro 3 p 4.8
  #     hydro 4 d 9
  #     hydro 3 s 3.2
  ################################################################################
  #
  # For methods that use the localized form of the "resolution of identity" for
  # the two-electron Coulomb operator (RI_method LVL), particularly Hartree-Fock and
  # hybrid density functional calculations, the highest accuracy can be obtained by
  # uncommenting the line beginning with "for_aux"  below, thus adding an extra g radial
  # function to the construction of the product basis set for the expansion.
  # See Ref. New J. Phys. 17, 093020 (2015) for more information, particularly Figs. 1 and 6.
  #
  ################################################################################
  #
  # for_aux hydro 5 g 6.0
  
  -----------------------------------------------------------------------
  Completed first pass over input file control.in .
  -----------------------------------------------------------------------
  
  
  -----------------------------------------------------------------------
  Parsing geometry.in (first pass over file, find array dimensions only).
  The contents of geometry.in will be repeated verbatim below
  unless switched off by setting 'verbatim_writeout .false.' .
  in the first line of geometry.in .
  -----------------------------------------------------------------------
  
  #
  # This is the geometry file that corresponds to the current relaxation step.
  # If you do not want this file to be written, set the "write_restart_geometry" flag to .false.
  #  aims_uuid : F3AB908D-70D3-42AD-A75B-CCCE4388F477
  #
    set_vacuum_level        26.884190
  lattice_vector     18.97686384      0.00000000      0.00000000
    constrain_relaxation y
    constrain_relaxation z
  lattice_vector      0.00000000     21.91360147      0.00000000
    constrain_relaxation x
    constrain_relaxation z
  lattice_vector      0.00000000      0.00000000     30.00000000
    constrain_relaxation .true.
  atom       0.82058216      1.73202598     11.18835296 Mo
  atom       3.98300458      1.73204699     11.18871006 Mo
  atom       2.40143042      2.64400812     12.75748078 S
  atom       2.40186140      2.64597121      9.62033447 S
  atom       2.40130632      4.47079283     11.19032933 Mo
  atom       0.82046980      5.38284098     12.75964938 S
  atom       0.81998494      5.38579289      9.62281784 S
  atom       7.14594185      1.73256568     11.19014385 Mo
  atom       5.56346880      2.64363306     12.75851044 S
  atom       5.56501714      2.64614131      9.62137923 S
  atom       8.72709490      2.64334115     12.76041686 S
  atom       8.72825017      2.64757594      9.62341778 S
  atom       5.56419105      4.47040293     11.19172744 Mo
  atom       3.98117079      5.38151922     12.76062723 S
  atom       3.98303557      5.38553473      9.62347551 S
  atom       8.72724471      4.47124873     11.19491605 Mo
  atom       7.14347023      5.37782020     12.76505970 S
  atom       7.14700663      5.38528727      9.62555263 S
  atom       0.82013185      7.21061128     11.19316330 Mo
  atom       3.98116986      7.20955315     11.19464630 Mo
  atom       2.39983754      8.12223583     12.76307450 S
  atom       2.40148807      8.12477521      9.62564025 S
  atom       2.40128911      9.95024513     11.19560356 Mo
  atom       0.82053667     10.86362995     12.76366928 S
  atom       0.82041047     10.86323139      9.62667202 S
  atom       7.13992653      7.20475972     11.19936670 Mo
  atom       5.55923900      8.11845481     12.76699155 S
  atom       5.56491034      8.12531495      9.63035329 S
  atom       8.71978209      8.10907311     12.77454153 S
  atom       8.72839014      8.12990737      9.63771721 S
  atom       5.55755238      9.94676510     11.20286918 Mo
  atom       3.97744742     10.86411159     12.76806399 S
  atom       3.98497803     10.86319031      9.62946083 S
  atom       8.74113673      9.95397413     11.20849434 Mo
  atom       7.13246850     10.86508559     12.77611964 S
  atom       7.15157585     10.85995441      9.64019033 S
  atom      10.30912496      1.73277201     11.19133030 Mo
  atom      13.47223284      1.73272476     11.19073334 Mo
  atom      11.89068454      2.64292864     12.76115534 S
  atom      11.89024644      2.64797755      9.62399404 S
  atom      11.89044831      4.47115664     11.19606538 Mo
  atom      10.30819475      5.38014510     12.76745429 S
  atom      10.30959488      5.39019577      9.63017059 S
  atom      16.63507021      1.73226273     11.18913854 Mo
  atom      15.05461223      2.64351439     12.75935836 S
  atom      15.05284725      2.64707592      9.62229157 S
  atom      18.21667758      2.64402593     12.75779365 S
  atom      18.21579428      2.64630904      9.62068680 S
  atom      15.05346407      4.47094575     11.19326015 Mo
  atom      13.47398753      5.37769718     12.76685167 S
  atom      13.47038842      5.38747560      9.62831882 S
  atom      18.21612213      4.47103523     11.19085894 Mo
  atom      16.63658179      5.38197828     12.76179188 S
  atom      16.63383675      5.38621005      9.62465101 S
  atom      10.30803578      7.21022273     11.20482971 Mo
  atom      13.47695027      7.20654217     11.20329456 Mo
  atom      11.89637139      8.10565291     12.77887484 S
  atom      11.88954196      8.13373622      9.64401014 S
  atom      11.87723315      9.95809967     11.22426104 Mo
  atom      10.31438069     10.86049463     12.74822870 S
  atom      10.31381817     10.86086089      9.61870211 S
  atom      16.63566313      7.21018622     11.19595411 Mo
  atom      15.05874565      8.12046025     12.76982450 S
  atom      15.05110120      8.12576591      9.63239120 S
  atom      18.21774592      8.12276969     12.76343922 S
  atom      18.21501120      8.12482995      9.62621883 S
  atom      15.05970611      9.94816634     11.20399542 Mo
  atom      13.49060203     10.86748512     12.77932172 S
  atom      13.46357750     10.85971288      9.64442266 S
  atom      18.21638960      9.95052508     11.19579266 Mo
  atom      16.64090392     10.86515814     12.76856289 S
  atom      16.63246842     10.86369523      9.62995827 S
  atom       0.82094575     12.68963070     11.19481653 Mo
  atom       3.98343894     12.68940483     11.19772899 Mo
  atom       2.40106973     13.60438679     12.76362163 S
  atom       2.40356099     13.60120206      9.62662969 S
  atom       2.40251008     15.42880672     11.19319802 Mo
  atom       0.82110779     16.34362859     12.76028085 S
  atom       0.82140924     16.34020748      9.62335234 S
  atom       7.14688383     12.68940352     11.20476042 Mo
  atom       5.56250224     13.60475598     12.76802225 S
  atom       5.56937230     13.59979907      9.63159248 S
  atom       8.71949680     13.61436814     12.77590792 S
  atom       8.73362990     13.59973873      9.64006394 S
  atom       5.56520673     15.42927837     11.19677762 Mo
  atom       3.98204599     16.34398401     12.76204598 S
  atom       3.98528495     16.33990265      9.62505719 S
  atom       8.72734275     15.43723576     11.20228149 Mo
  atom       7.14260332     16.34802468     12.76675210 S
  atom       7.14768012     16.34017657      9.62818098 S
  atom       0.82116296     18.16791710     11.18992220 Mo
  atom       3.98367914     18.16815542     11.19108492 Mo
  atom       2.40181101     19.08214159     12.75817663 S
  atom       2.40288737     19.07972729      9.62110268 S
  atom       2.40212809     20.90685412     11.18842730 Mo
  atom       0.82079126     21.81983647     12.75672540 S
  atom       0.82084419     21.81971779      9.61959705 S
  atom       7.14599445     18.16917678     11.19322970 Mo
  atom       5.56374021     19.08337818     12.75953603 S
  atom       5.56569399     19.08009237      9.62253891 S
  atom       8.72739848     19.08476566     12.76122323 S
  atom       8.72786249     19.08103473      9.62380564 S
  atom       5.56465458     20.90752195     11.18944497 Mo
  atom       3.98270364     21.82014320     12.75725376 S
  atom       3.98372184     21.81978918      9.62005876 S
  atom       8.72750734     20.90815914     11.19069105 Mo
  atom       7.14540566     21.82066267     12.75847572 S
  atom       7.14662225     21.82056997      9.62131320 S
  atom      10.31292018     12.67621232     11.20858737 Mo
  atom      13.47241407     12.69099722     11.20542093 Mo
  atom      11.89966363     13.61727513     12.77479416 S
  atom      11.88645007     13.59920700      9.63799568 S
  atom      11.89317852     15.43759569     11.19948933 Mo
  atom      10.31115279     16.35010019     12.76659078 S
  atom      10.30883867     16.34117333      9.62998693 S
  atom      16.63555868     12.69010138     11.19783453 Mo
  atom      15.05680126     13.60611045     12.76852472 S
  atom      15.04991264     13.59951874      9.63122825 S
  atom      18.21795143     13.60485054     12.76365740 S
  atom      18.21550078     13.60130988      9.62649114 S
  atom      15.05419722     15.42955351     11.19572316 Mo
  atom      13.47684735     16.34802090     12.76546850 S
  atom      13.47280469     16.34095607      9.62596659 S
  atom      18.21688170     15.42896527     11.19289705 Mo
  atom      16.63693246     16.34416596     12.76129070 S
  atom      16.63446001     16.33998050      9.62431828 S
  atom      10.30947855     18.17094762     11.19390160 Mo
  atom      13.47333300     18.16925826     11.19197956 Mo
  atom      11.89216926     19.08455087     12.76053773 S
  atom      11.89064502     19.08126602      9.62339151 S
  atom      11.89113879     20.90822790     11.19048873 Mo
  atom      10.30933536     21.82046757     12.75907574 S
  atom      10.30923083     21.82102946      9.62218522 S
  atom      16.63553108     18.16827478     11.19038992 Mo
  atom      15.05515447     19.08307517     12.75883358 S
  atom      15.05366319     19.08063729      9.62175267 S
  atom      18.21697730     19.08206317     12.75790780 S
  atom      18.21649166     19.07991183      9.62081634 S
  atom      15.05406145     20.90760655     11.18920925 Mo
  atom      13.47319439     21.82032717     12.75850607 S
  atom      13.47195607     21.82105672      9.62140158 S
  atom      18.21653868     20.90691332     11.18833233 Mo
  atom      16.63579109     21.81997213     12.75726972 S
  atom      16.63484803     21.82026940      9.62010896 S
  atom      10.50484351     10.75132378     14.51428113 O
  atom       9.72022355     11.21001796     14.87620186 H
  #
  # What follows is the current estimated Hessian matrix constructed by the BFGS algorithm.
  # This is NOT the true Hessian matrix of the system.
  # If you do not want this information here, switch it off using the "hessian_to_restart_geometry" keyword.
  #
  trust_radius             0.0011128057
  hessian_block                1       1          12.475109          -0.074325          -0.008628          -0.074325          14.29618
  hessian_block                1       2          -2.147003           1.509410           0.197658          -0.264113          -0.19396
  hessian_block                1       3          -1.788073          -0.463463          -1.507655          -0.534388          -1.19513
  hessian_block                1       4          -1.801684          -0.473243           1.408165          -0.553663          -1.19487
  hessian_block                1       5           0.149668          -3.591685           0.368631          -0.828736          -1.53024
  hessian_block                1       6           0.349121           0.011933          -0.113193           0.015845           0.19391
  hessian_block                1       7           0.374986          -0.001347          -0.095552           0.014194           0.22367
  hessian_block                1       8           0.120542           0.289210           0.372132           0.014758           0.21854
  hessian_block                1       9           0.253583          -0.398772          -0.178721          -0.029232          -0.01043
  hessian_block                1      10           0.297083          -0.402826          -0.187445          -0.028014           0.00231
  hessian_block                1      11          -0.015466          -0.242811          -0.119600          -0.018969           0.04753
  hessian_block                1      12          -0.045175          -0.239533          -0.115855           0.008060           0.06136
  hessian_block                1      13          -0.634547           0.616951           0.393343           0.063234          -0.51619
  hessian_block                1      14          -0.151209           0.356733          -0.208524           0.029235           0.30430
  hessian_block                1      15          -0.176191           0.349602          -0.224540           0.033039           0.30771
  hessian_block                1      16           0.004809          -0.226662           0.289700           0.229016          -0.00517
  hessian_block                1      17           0.067321           0.078667          -0.174472           0.067035           0.08635
  hessian_block                1      18           0.096199           0.142345          -0.166352           0.031900           0.09492
  hessian_block                1      19          -0.780027          -0.531723           0.329992          -0.096879           0.57710
  hessian_block                1      20           0.751163           0.143159           0.422433          -0.077137          -0.46004
  hessian_block                1      21          -0.113449          -0.095819          -0.094365          -0.024992          -0.00232
  hessian_block                1      22          -0.130788          -0.127108          -0.107056          -0.042745           0.00697
  hessian_block                1      23           0.309612           0.223397           0.091384           0.849371           0.09061
  hessian_block                1      24          -0.136737          -0.269588           0.011468          -0.249169           0.02520
  hessian_block                1      25          -0.116993          -0.248108           0.005772          -0.238566           0.02676
  hessian_block                1      26           0.165894          -0.389438           0.509307           0.182038          -0.53494
  hessian_block                1      27          -0.227179           0.150563          -0.168645           0.011231           0.17524
  hessian_block                1      28          -0.170270           0.160328          -0.183315           0.047944           0.22892
  hessian_block                1      29           0.032911           0.094289          -0.084828          -0.097580           0.22011
  hessian_block                1      30           0.055478          -0.039592          -0.029682          -0.061575           0.05453
  hessian_block                1      31           0.454179          -0.030463          -0.107662          -0.247724          -0.06445
  hessian_block                1      32          -0.084464          -0.024893          -0.090461          -0.031333           0.04738
  hessian_block                1      33          -0.102914          -0.029398          -0.065159          -0.022923           0.04955
  hessian_block                1      34          -0.001550           0.166766          -0.015154           0.126075          -0.25679
  hessian_block                1      35          -0.042807          -0.133681           0.110298          -0.045813           0.07679
  hessian_block                1      36           0.056968          -0.099756           0.041982          -0.070880           0.17238
  hessian_block                1      37           0.767815           0.625315           0.111219          -0.456210          -0.26253
  hessian_block                1      38          -0.220076          -0.176530          -0.101511          -0.619382           0.25197
  hessian_block                1      39          -0.143827           0.048316          -0.034571           0.204279           0.00285
  hessian_block                1      40          -0.149972           0.062495          -0.032604           0.188444           0.00892
  hessian_block                1      41           0.878490          -0.542070          -0.037686          -0.021985          -0.50349
  hessian_block                1      42          -0.109179           0.115929          -0.078127          -0.119844           0.04102
  hessian_block                1      43          -0.105017           0.056983          -0.120795          -0.100345           0.05472
  hessian_block                1      44          -2.768745          -1.405308          -0.046131           1.326163           0.32541
  hessian_block                1      45           0.254022           0.352691           0.091315           0.102822          -0.21275
  hessian_block                1      46           0.279643           0.364211           0.097244           0.100765          -0.19873
  hessian_block                1      47          -1.574885           0.538968           1.402544           0.451794          -1.29613
  hessian_block                1      48          -1.596183           0.522624          -1.512424           0.471610          -1.29129
  hessian_block                1      49           0.101610          -0.574168          -0.053868          -0.816474          -0.00151
  hessian_block                1      50          -0.087378          -0.079331           0.048597           0.075075           0.09785
  hessian_block                1      51          -0.120141          -0.032482           0.067558           0.072445           0.04627
  hessian_block                1      52          -0.171890           3.586125          -0.035903           0.354769          -1.22123
  hessian_block                1      53          -0.212877          -0.339079           0.026305           0.129627           0.29380
  hessian_block                1      54          -0.238548          -0.359539           0.036527           0.096907           0.29627
  hessian_block                1      55          -0.325224           0.346676           0.208991           0.451128           0.42052
  hessian_block                1      56           0.050372           1.116429          -0.260244           0.161787          -0.43151
  hessian_block                1      57           0.072275          -0.470063           0.053279          -0.113364           0.06646
  hessian_block                1      58           0.051122          -0.228834           0.020818          -0.068923           0.16662
  hessian_block                1      59          -0.064663          -0.274954          -0.239931          -0.065652          -0.12785
  hessian_block                1      60          -0.116798           0.541518          -0.182324           0.006549          -0.20224
  hessian_block                1      61          -0.003744          -0.068161           0.039530          -0.055988           0.05792
  hessian_block                1      62           0.303864           0.030061          -0.139859           0.280161          -1.27654
  hessian_block                1      63          -0.096025          -0.225333           0.142657          -0.041049           0.17417
  hessian_block                1      64          -0.083579          -0.115695           0.098876          -0.029432           0.19745
  hessian_block                1      65           0.148600           0.106640          -0.087975           0.049793           0.04868
  hessian_block                1      66           0.122491           0.103406          -0.104342           0.079493           0.05482
  hessian_block                1      67           0.111565          -0.492385          -0.246533          -0.193599           1.06746
  hessian_block                1      68          -0.134262           0.210349           0.074386           0.058328           0.23527
  hessian_block                1      69          -0.171839           0.023894           0.130710          -0.008350           0.12187
  hessian_block                1      70          -0.449481           0.822751           0.044611           0.061248           0.23842
  hessian_block                1      71           0.205906           0.077437           0.010462          -0.084280          -0.18348
  hessian_block                1      72           0.239852           0.185206           0.017759          -0.136250          -0.26976
  hessian_block                1      73           0.548370           0.330451           0.261064          -0.148858           0.43232
  hessian_block                1      74          -0.184420          -0.499211           0.277546          -0.797514           0.48752
  hessian_block                1      75          -0.160155           0.126104          -0.111967          -0.034453          -0.39603
  hessian_block                1      76          -0.177030           0.071406          -0.143679          -0.037107          -0.37969
  hessian_block                1      77           0.356181          -0.657430           0.033127           1.343878           0.11469
  hessian_block                1      78          -0.056766          -0.103160           0.028844          -0.038572           0.15271
  hessian_block                1      79          -0.051502          -0.095011           0.043447          -0.042951           0.11308
  hessian_block                1      80           0.017665           0.459827           0.336731           0.122608           0.04813
  hessian_block                1      81          -0.190771           0.009465          -0.089290           0.054043          -0.07526
  hessian_block                1      82          -0.146719           0.025348          -0.072856           0.051297          -0.13356
  hessian_block                1      83           0.231842          -0.128872          -0.079480           0.124963           0.11771
  hessian_block                1      84           0.228386          -0.056000           0.001447           0.118773           0.03758
  hessian_block                1      85           1.146005           0.002682          -0.111918           0.409486          -0.57510
  hessian_block                1      86           0.031855           0.021826           0.037668          -0.260142           0.25870
  hessian_block                1      87           0.012249          -0.013644           0.042153          -0.236139           0.28017
  hessian_block                1      88          -0.507050          -0.827896          -0.038984          -0.630211          -0.25008
  hessian_block                1      89          -0.011813           0.263935           0.072608           0.022231           0.08897
  hessian_block                1      90           0.013159           0.287513           0.069839           0.012213           0.15730
  hessian_block                1      91           0.625234           0.364668          -0.132492          -0.844765          -0.06768
  hessian_block                1      92          -1.103108           0.414659          -0.046816          -0.366767          -0.68305
  hessian_block                1      93           0.024068          -0.194177           0.078732          -0.155584           0.29974
  hessian_block                1      94           0.037104          -0.177200           0.089945          -0.181827           0.27778
  hessian_block                1      95          -0.128727           0.119834          -0.111861           2.433008          -1.70302
  hessian_block                1      96          -0.653468          -0.001922           0.023388          -0.046890          -2.36911
  hessian_block                1      97          -0.644125          -0.003437           0.033204          -0.041540          -2.38167
  hessian_block                1      98          -0.332546           0.049066          -0.251022           0.931334          -0.44117
  hessian_block                1      99           0.330743          -0.056302           0.045079          -0.084309           0.07071
  hessian_block                1     100           0.359829          -0.061392           0.062433          -0.086754           0.03563
  hessian_block                1     101           0.049299          -0.020185           0.108346          -0.084147           0.11768
  hessian_block                1     102           0.038174          -0.019464           0.096254          -0.075492           0.12334
  hessian_block                1     103           0.488172          -0.413135          -0.165314          -0.975809           0.74685
  hessian_block                1     104           0.257232          -0.048176           0.039496          -0.068918           0.32117
  hessian_block                1     105           0.267747          -0.058052           0.035794          -0.049203           0.31326
  hessian_block                1     106          -0.128447          -0.234886          -0.244388          -1.039655           0.39205
  hessian_block                1     107           0.038246           0.050971           0.012259           0.366005          -0.19886
  hessian_block                1     108           0.024561           0.058784           0.022805           0.334914          -0.22294
  hessian_block                1     109          -0.401811           0.186503           0.073552          -0.085880          -0.02515
  hessian_block                1     110           0.729760          -0.463477           0.082297          -0.337945          -1.03195
  hessian_block                1     111          -0.052839           0.241660           0.027560          -0.013849          -0.00812
  hessian_block                1     112          -0.086564           0.219196          -0.057228           0.041757          -0.01405
  hessian_block                1     113          -0.225290          -0.408846           0.067497           0.262450          -0.10113
  hessian_block                1     114          -0.045155           0.059745           0.021891           0.040449           0.14452
  hessian_block                1     115          -0.037079           0.109590           0.028584           0.048052           0.10904
  hessian_block                1     116          -0.929126          -1.052974           0.031447           0.475408           0.72258
  hessian_block                1     117          -0.044336           0.002669          -0.058780          -0.053341          -0.18371
  hessian_block                1     118          -0.020046           0.097164          -0.060473          -0.006574          -0.09855
  hessian_block                1     119           0.294908           0.133539          -0.012058           0.010010          -0.35034
  hessian_block                1     120           0.283855           0.184285          -0.035920           0.027703          -0.31757
  hessian_block                1     121           0.424733           0.715820           0.010194           0.314085          -0.07321
  hessian_block                1     122           0.059307          -0.087798          -0.013969          -0.187457           0.08995
  hessian_block                1     123           0.004936          -0.163360          -0.040028          -0.169017           0.14338
  hessian_block                1     124          -1.424835           0.515328          -0.072110          -0.063752          -0.31571
  hessian_block                1     125           0.146034          -0.040560           0.014285           0.001277           0.30045
  hessian_block                1     126           0.151350           0.008692           0.004799           0.009259           0.30965
  hessian_block                1     127          -0.010294           0.398611          -0.202161           0.221290          -0.06123
  hessian_block                1     128           0.032046           0.168587          -0.020015           0.553578           0.05416
  hessian_block                1     129          -0.113352          -0.174032           0.082304          -0.197467          -0.04426
  hessian_block                1     130          -0.112550          -0.180310           0.078036          -0.203476          -0.03226
  hessian_block                1     131           0.351694           0.021120          -0.142948           0.428480          -0.09263
  hessian_block                1     132          -0.268318          -0.038410           0.020285           0.138447           0.06412
  hessian_block                1     133          -0.248359          -0.032490           0.018784           0.104849           0.03275
  hessian_block                1     134           0.450472          -0.818796          -0.137696           0.045220           0.01352
  hessian_block                1     135          -0.005394           0.206263           0.070046          -0.155319          -0.17817
  hessian_block                1     136          -0.021421           0.227165           0.070253          -0.159316          -0.18118
  hessian_block                1     137          -0.070408           0.100730           0.035651           0.459149           0.13998
  hessian_block                1     138          -0.090415           0.079781           0.024940           0.442684           0.11995
  hessian_block                1     139           0.038117           0.102116          -0.222892           0.031615           0.30020
  hessian_block                1     140           0.021796           0.089414           0.099720           0.186412           0.08057
  hessian_block                1     141           0.015457           0.089442           0.086066           0.166109           0.06413
  hessian_block                1     142          -0.712087          -0.022147          -0.166818          -2.249149          -1.97305
  hessian_block                1     143           0.643140           0.014051           0.059548           0.028368           0.36447
  hessian_block                1     144           0.624060           0.007751           0.057608           0.026146           0.35581
  hessian_block                1     145          -0.366908           0.103630           0.383968           0.099826           0.03567
  hessian_block                1     146           0.374060          -0.199867          -0.372316          -0.153501           0.11382
  hessian_block                2       2          13.440303          -0.272538           0.209422          -0.272538          13.04073
  hessian_block                2       3          -1.704441           0.561285           1.379948           0.602327          -0.97171
  hessian_block                2       4          -1.735891           0.604098          -1.516974           0.617983          -0.95759
  hessian_block                2       5          -1.043149           2.066682           0.230705          -0.137901          -1.50085
  hessian_block                2       6          -0.046220          -0.144270          -0.091316           0.214182           0.33814
  hessian_block                2       7          -0.047450          -0.165535          -0.068943           0.200196           0.34076
  hessian_block                2       8          -2.072352           0.442442           0.356920          -2.313743           0.28030
  hessian_block                2       9          -1.946180          -0.566758          -1.606570          -0.448372          -1.23345
  hessian_block                2      10          -1.948613          -0.589091           1.295510          -0.477361          -1.23290
  hessian_block                2      11           0.009088           0.053127          -0.115793           0.474043          -0.08809
  hessian_block                2      12          -0.014553           0.105566          -0.120659           0.468331          -0.12543
  hessian_block                2      13          -0.111255          -2.074853           0.363686           0.772823          -0.53453
  hessian_block                2      14           0.441463          -0.098013          -0.149385          -0.277319           0.10783
  hessian_block                2      15           0.433657          -0.040492          -0.169402          -0.245201           0.06370
  hessian_block                2      16           0.700552           0.322254           0.215682           0.085923          -0.74339
  hessian_block                2      17          -0.164918           0.284358          -0.165938          -0.146616           0.12238
  hessian_block                2      18          -0.233690           0.255582          -0.182526          -0.164400           0.20310
  hessian_block                2      19           0.025569          -0.064395           0.285247           0.290994          -0.75454
  hessian_block                2      20          -0.321920           0.228855           0.455454           0.664537           0.17502
  hessian_block                2      21           0.081589           0.160168          -0.105128          -0.055685           0.23830
  hessian_block                2      22           0.070897           0.169734          -0.110696          -0.053572           0.26725
  hessian_block                2      23          -0.382326          -0.431910           0.037479          -0.249213          -0.62064
  hessian_block                2      24          -0.140476           0.007239          -0.007525           0.065158          -0.20438
  hessian_block                2      25          -0.138039          -0.012630          -0.001844           0.064798          -0.18625
  hessian_block                2      26           0.109441           0.170628           0.511570          -0.144640          -0.08267
  hessian_block                2      27           0.197306          -0.154328          -0.156615          -0.169185           0.11108
  hessian_block                2      28           0.211668          -0.148744          -0.149860          -0.167673           0.06192
  hessian_block                2      29          -0.061650           0.007118          -0.082924           0.042167           0.09057
  hessian_block                2      30          -0.143726           0.046053          -0.062933           0.139994           0.10061
  hessian_block                2      31          -0.511840          -0.346516          -0.123096           0.357366          -0.03857
  hessian_block                2      32           0.335998           0.186253          -0.056035           0.076512           0.05801
  hessian_block                2      33           0.271425           0.224855          -0.059610           0.062288           0.03695
  hessian_block                2      34           0.105847          -0.264926          -0.017483          -0.660152          -0.12295
  hessian_block                2      35           0.024151          -0.068119           0.102090           0.060289           0.04875
  hessian_block                2      36           0.077261          -0.019665           0.081721           0.012261           0.01364
  hessian_block                2      37          -0.090277          -0.214146           0.069108          -0.212244           0.77713
  hessian_block                2      38           0.072457           0.043701          -0.135498          -0.037957           0.86006
  hessian_block                2      39           0.041263          -0.106877          -0.017992           0.032032          -0.19254
  hessian_block                2      40           0.050960          -0.127188          -0.021675          -0.000966          -0.16248
  hessian_block                2      41           0.297178           0.194278          -0.016552           0.511787          -0.28905
  hessian_block                2      42          -0.194829          -0.093755          -0.078645          -0.110297           0.07053
  hessian_block                2      43          -0.117412          -0.129630          -0.075251          -0.069574           0.08938
  hessian_block                2      44          -1.415150           0.280193          -0.027190          -0.527111           2.18286
  hessian_block                2      45           0.271814           0.020695           0.065928          -0.004470          -0.54836
  hessian_block                2      46           0.294708          -0.030017           0.085136          -0.024516          -0.55342
  hessian_block                2      47           0.271292           0.169647          -0.021461          -0.011019          -0.21248
  hessian_block                2      48           0.295443           0.166440          -0.030771          -0.001769          -0.23529
  hessian_block                2      49          -0.077515           0.033957          -0.058515           0.603251           0.46799
  hessian_block                2      50          -0.142505          -0.102139           0.072890          -0.268956          -0.17236
  hessian_block                2      51          -0.142544          -0.068179           0.067713          -0.189092          -0.13640
  hessian_block                2      52           0.480319          -0.877816          -0.052272          -0.568268          -0.83770
  hessian_block                2      53           0.049408           0.246660           0.018910           0.037607           0.06805
  hessian_block                2      54           0.055243           0.264985           0.028022           0.045680           0.06614
  hessian_block                2      55          -0.018982          -0.065725           0.217815          -0.110477          -0.20593
  hessian_block                2      56           0.553594           0.379947          -0.286621           0.468258           0.38975
  hessian_block                2      57          -0.036668           0.014450           0.054931          -0.160278           0.06616
  hessian_block                2      58           0.004494          -0.032451           0.021253          -0.214189           0.08779
  hessian_block                2      59          -0.001872           0.118160          -0.221105           0.096745          -0.17872
  hessian_block                2      60          -0.162188          -0.091481          -0.174665           0.156682          -0.16971
  hessian_block                2      61          -0.211925          -0.022708           0.029898           0.227994           0.19710
  hessian_block                2      62          -0.737582          -0.674901          -0.197631          -0.349977          -1.11276
  hessian_block                2      63           0.214212           0.243826           0.151976          -0.016895           0.03605
  hessian_block                2      64           0.215009           0.103715           0.120256          -0.031563           0.04895
  hessian_block                2      65          -0.108407          -0.136948          -0.063045           0.067398           0.32033
  hessian_block                2      66          -0.078285          -0.096573          -0.069996           0.071118           0.28942
  hessian_block                2      67          -0.725313          -0.860059          -0.174799          -0.397181           0.87410
  hessian_block                2      68           0.420658           0.125199           0.058173           0.091593          -0.17740
  hessian_block                2      69           0.399967           0.098734           0.115238           0.163476          -0.16962
  hessian_block                2      70           1.271128           0.925015           0.040276          -0.588707           0.17961
  hessian_block                2      71          -0.180010          -0.126644           0.024365           0.224220           0.12872
  hessian_block                2      72          -0.205967          -0.199025           0.026678           0.234757           0.15464
  hessian_block                2      73           0.344929          -0.389599           0.284295           0.563770           2.18865
  hessian_block                2      74          -0.381698           0.342636           0.333601          -0.272076           1.20411
  hessian_block                2      75           0.029767           0.041634          -0.156923           0.061762          -0.26035
  hessian_block                2      76           0.046412           0.044579          -0.172291           0.064507          -0.24309
  hessian_block                2      77          -0.137059           0.172213           0.066689          -0.575939          -1.92936
  hessian_block                2      78          -0.148139           0.060768           0.008509           0.276650           0.45361
  hessian_block                2      79          -0.153894           0.070743           0.015987           0.268497           0.46634
  hessian_block                2      80           0.107065           0.778713           0.261084          -0.182550           0.15524
  hessian_block                2      81           0.009782          -0.130684          -0.062763          -0.102100          -0.28609
  hessian_block                2      82           0.001397          -0.077003          -0.049172          -0.030193          -0.31149
  hessian_block                2      83          -0.131352          -0.093968          -0.069068          -0.072632           0.03476
  hessian_block                2      84          -0.157165          -0.094758          -0.002566          -0.068262           0.02970
  hessian_block                2      85          -0.217800          -1.598941          -0.122209           0.440891           0.13341
  hessian_block                2      86          -0.123320           0.117539           0.032243          -0.076255          -0.02490
  hessian_block                2      87          -0.106670           0.107197           0.033621          -0.110433          -0.01586
  hessian_block                2      88           0.629572           0.062437          -0.071827           0.386835          -0.23859
  hessian_block                2      89           0.276436           0.338877           0.062547          -0.037575          -0.00436
  hessian_block                2      90           0.279882           0.346373           0.060749          -0.039980          -0.00439
  hessian_block                2      91           0.449603          -1.125292          -0.076176           0.027874          -0.89730
  hessian_block                2      92           0.199012           0.573847          -0.024047           0.448069           1.02792
  hessian_block                2      93          -0.148087           0.102964           0.063757           0.432732          -0.04285
  hessian_block                2      94          -0.158524           0.116335           0.070967           0.441477          -0.02775
  hessian_block                2      95           0.131777           0.343502          -0.141961          -2.801138          -0.69705
  hessian_block                2      96           0.357621          -0.112912           0.030980           0.109086           0.46006
  hessian_block                2      97           0.347964          -0.114228           0.032395           0.110396           0.45012
  hessian_block                2      98          -0.994690           0.153208          -0.258712          -0.616600           0.05569
  hessian_block                2      99           0.234426          -0.129779           0.041539          -0.268593           0.05224
  hessian_block                2     100           0.229971          -0.152447           0.065620          -0.293844           0.06533
  hessian_block                2     101           0.295684          -0.043833           0.095356           0.135027          -0.03054
  hessian_block                2     102           0.307227          -0.073804           0.091968           0.096129          -0.01235
  hessian_block                2     103          -1.100786           0.114557          -0.195359           2.648083          -1.57083
  hessian_block                2     104          -0.839425           0.008849           0.026847          -0.028526          -2.39322
  hessian_block                2     105          -0.828427           0.013995           0.025329          -0.018806          -2.41216
  hessian_block                2     106           0.250870           0.222445          -0.160034          -0.543930          -0.27649
  hessian_block                2     107           0.383899           0.034823          -0.007801           0.146030           0.33177
  hessian_block                2     108           0.359823           0.057734          -0.007242           0.151144           0.37058
  hessian_block                2     109           0.951971           0.121095           0.159274           0.132659          -0.02325
  hessian_block                2     110          -1.005097           0.353719           0.138466           0.064771           0.03948
  hessian_block                2     111           0.062826          -0.106460          -0.002343          -0.034233           0.12963
  hessian_block                2     112           0.095120          -0.114573          -0.081600          -0.101751           0.07597
  hessian_block                2     113          -0.655945          -0.157054           0.134978           0.255130          -0.00735
  hessian_block                2     114           0.130315           0.035288           0.036452          -0.168459          -0.01939
  hessian_block                2     115           0.111314           0.019166           0.038461          -0.152820          -0.12831
  hessian_block                2     116           0.377179          -0.197148           0.006733          -0.100526          -0.94538
  hessian_block                2     117           0.062970           0.027816          -0.089063           0.010471           0.10082
  hessian_block                2     118           0.018272          -0.088856          -0.084283          -0.022717           0.03436
  hessian_block                2     119          -0.174637          -0.080566           0.005710           0.092869          -0.18583
  hessian_block                2     120          -0.152003          -0.081845          -0.012576           0.083839          -0.19600
  hessian_block                2     121           0.169419           0.499391           0.022968          -0.505358           0.81932
  hessian_block                2     122          -0.192895          -0.130002          -0.051164          -0.196743          -0.35380
  hessian_block                2     123          -0.150161          -0.130403          -0.062036          -0.177506          -0.39253
  hessian_block                2     124           0.751035           0.713603          -0.039814          -1.040301          -0.11083
  hessian_block                2     125          -0.079475          -0.383722           0.006447           0.213351          -0.13933
  hessian_block                2     126          -0.105440          -0.358728          -0.008266           0.228208          -0.13371
  hessian_block                2     127          -0.615872          -0.313185          -0.219279          -0.011868           0.17457
  hessian_block                2     128           0.666451           0.499491           0.055394           0.956074           0.36142
  hessian_block                2     129          -0.249942           0.040690           0.058768          -0.124777          -0.16289
  hessian_block                2     130          -0.246547           0.059499           0.061088          -0.144377          -0.15232
  hessian_block                2     131           0.796342          -0.252307          -0.180585          -0.245993           0.41544
  hessian_block                2     132          -0.144986          -0.054825           0.035189           0.056033          -0.10050
  hessian_block                2     133          -0.139557          -0.080790           0.043719           0.039211          -0.04841
  hessian_block                2     134           0.015082           0.763372          -0.061491           0.086666          -0.58345
  hessian_block                2     135          -0.075165          -0.079586           0.034098          -0.065472           0.14963
  hessian_block                2     136          -0.085904          -0.063407           0.022231          -0.090172           0.15419
  hessian_block                2     137          -0.052706          -0.001814           0.023625          -0.000758           0.21228
  hessian_block                2     138          -0.041705           0.002071           0.005341          -0.002003           0.22560
  hessian_block                2     139          -0.360671          -0.462899          -0.159027           0.122320          -0.69639
  hessian_block                2     140          -0.082072           0.119223           0.073094           0.029359          -0.05393
  hessian_block                2     141          -0.064508           0.119123           0.068796           0.018207          -0.01885
  hessian_block                2     142          -0.011792          -0.012962          -0.210484           0.044161          -0.17766
  hessian_block                2     143           0.252534           0.129741           0.076137           0.068069          -0.16511
  hessian_block                2     144           0.253388           0.130059           0.071174           0.074411          -0.15531
  hessian_block                2     145           0.261046           0.791575           0.258056          -0.058394          -0.36413
  hessian_block                2     146          -0.166526          -0.905241          -0.240969           0.063797           0.51375
  hessian_block                3       3           5.408245          -0.051684           0.075551          -0.051684           5.42886
  hessian_block                3       4           0.323166          -0.057007           0.095219          -0.052947           0.32407
  hessian_block                3       5          -0.881677           0.357574          -0.101698           0.237045          -2.32412
  hessian_block                3       6           0.041441           0.074615           0.015127          -0.008682          -0.01297
  hessian_block                3       7           0.046113           0.055469           0.018306          -0.027950           0.02459
  hessian_block                3       8           0.109494          -0.221516          -0.261744           0.320080          -0.18926
  hessian_block                3       9          -0.135341           0.055857           0.131399           0.011367           0.04503
  hessian_block                3      10          -0.114852           0.069497           0.124899           0.023627           0.03824
  hessian_block                3      11           0.017375           0.025437           0.085640          -0.099916           0.04109
  hessian_block                3      12           0.040611           0.003802           0.106040          -0.125066           0.04314
  hessian_block                3      13           0.332650          -0.096905          -0.132220          -0.210009           0.34357
  hessian_block                3      14           0.054475          -0.158068           0.006411          -0.028810          -0.06901
  hessian_block                3      15           0.068721          -0.137850           0.011934          -0.036109          -0.02506
  hessian_block                3      16          -0.211345           0.313926          -0.115210          -0.110591          -0.02380
  hessian_block                3      17          -0.002586          -0.057880           0.113003           0.032289           0.02298
  hessian_block                3      18           0.004864          -0.049976           0.129620           0.048426           0.01456
  hessian_block                3      19          -0.027261          -0.275084          -0.126341           0.178934           0.13816
  hessian_block                3      20          -0.191368           0.516851          -0.062658          -0.071059           0.05516
  hessian_block                3      21          -0.001355          -0.053957           0.108275          -0.055578          -0.08272
  hessian_block                3      22           0.003431          -0.067841           0.119498          -0.049081          -0.08340
  hessian_block                3      23           0.022141          -0.171671          -0.072740          -0.038370           0.03458
  hessian_block                3      24           0.061196           0.012622           0.028661           0.033049          -0.00515
  hessian_block                3      25           0.038320           0.022194           0.026746           0.038170          -0.01046
  hessian_block                3      26           0.242159          -0.065328          -0.226122           0.006314          -0.09271
  hessian_block                3      27          -0.001695          -0.103123           0.007732           0.081860          -0.04290
  hessian_block                3      28          -0.060550          -0.077720          -0.018682           0.057468          -0.03618
  hessian_block                3      29          -0.066321           0.029589           0.012514          -0.023207           0.04155
  hessian_block                3      30           0.016143           0.042218           0.074078          -0.057088           0.09043
  hessian_block                3      31           0.032150           0.183293           0.143456          -0.065909           0.12920
  hessian_block                3      32          -0.049813           0.048440          -0.056224          -0.037678          -0.02858
  hessian_block                3      33          -0.012871           0.028510          -0.028518          -0.017727          -0.03186
  hessian_block                3      34          -0.024807          -0.173471           0.013693           0.051145          -0.05751
  hessian_block                3      35           0.097287          -0.017865           0.029542          -0.016912          -0.04298
  hessian_block                3      36          -0.006936           0.055890          -0.036147           0.030266          -0.02016
  hessian_block                3      37          -0.161869          -0.004263           0.051398           0.351441           0.05017
  hessian_block                3      38           0.147985           0.142604           0.178794          -0.010520          -0.05208
  hessian_block                3      39           0.056255          -0.015248          -0.006604          -0.086899           0.11838
  hessian_block                3      40           0.066683          -0.009151          -0.012405          -0.061151           0.09378
  hessian_block                3      41          -0.381297           0.119905          -0.111531          -0.075671          -0.19518
  hessian_block                3      42           0.110774          -0.040909           0.056086           0.126644           0.00097
  hessian_block                3      43           0.059839          -0.015607           0.012403           0.081099           0.05269
  hessian_block                3      44           0.470556          -0.057209           0.096801          -0.082076          -0.40137
  hessian_block                3      45          -0.049449          -0.050131          -0.047516          -0.013407           0.10148
  hessian_block                3      46          -0.065409          -0.039243          -0.060558          -0.005335           0.09366
  hessian_block                3      47          -0.244052          -0.006111          -0.080392          -0.042118           0.17893
  hessian_block                3      48          -0.191272          -0.010940          -0.094535          -0.052442           0.18729
  hessian_block                3      49           0.005107          -0.081368          -0.008869          -0.031457          -0.18862
  hessian_block                3      50           0.049795           0.036293          -0.024419           0.019876           0.07444
  hessian_block                3      51           0.083360           0.013476          -0.002111          -0.033053           0.11225
  hessian_block                3      52           0.422900          -0.078868           0.246931           0.141530           0.18149
  hessian_block                3      53          -0.057864          -0.017463          -0.081879          -0.036077          -0.03379
  hessian_block                3      54          -0.033890          -0.031225          -0.078302          -0.026853          -0.04632
  hessian_block                3      55           0.046519          -0.142194          -0.029536          -0.055141          -0.22255
  hessian_block                3      56          -0.175384          -0.217414           0.169257           0.053257          -0.08958
  hessian_block                3      57           0.047700           0.084773          -0.061359          -0.026933           0.05195
  hessian_block                3      58          -0.040717           0.089501          -0.111164           0.019492           0.02825
  hessian_block                3      59           0.066801           0.122418           0.164990          -0.049385           0.08555
  hessian_block                3      60          -0.066788          -0.038017           0.007831           0.036762           0.04976
  hessian_block                3      61           0.105023          -0.019846          -0.028250          -0.005601          -0.04579
[...]
  |    99       16.236101       -0.236101        5.851081       10.094964        0.231196        0.048897        0.009963
  |   100       16.235831       -0.235831        5.851279       10.095126        0.230676        0.048801        0.009948
  |   101       16.236309       -0.236309        5.851099       10.095532        0.230884        0.048840        0.009953
  |   102       16.235889       -0.235889        5.851289       10.095318        0.230567        0.048773        0.009942
  |   103       41.528294        0.471706        8.153166       18.649682       14.614938        0.096023        0.014486
  |   104       16.236012       -0.236012        5.851107       10.094906        0.231143        0.048893        0.009963
  |   105       16.235893       -0.235893        5.851284       10.095241        0.230630        0.048791        0.009946
  |   106       41.528310        0.471690        8.153233       18.649719       14.614811        0.096059        0.014489
  |   107       16.236030       -0.236030        5.851110       10.094977        0.231097        0.048885        0.009961
  |   108       16.235885       -0.235885        5.851284       10.095236        0.230628        0.048790        0.009946
  |   109       41.532854        0.467146        8.146341       18.640678       14.635603        0.095920        0.014313
  |   110       41.527399        0.472601        8.154016       18.649768       14.613002        0.096143        0.014470
  |   111       16.241378       -0.241378        5.852547       10.103439        0.227571        0.048010        0.009811
  |   112       16.236263       -0.236263        5.851713       10.095350        0.230578        0.048689        0.009933
  |   113       41.527364        0.472636        8.153727       18.648459       14.614800        0.095932        0.014446
  |   114       16.237176       -0.237176        5.850766       10.095996        0.231480        0.048954        0.009981
  |   115       16.236062       -0.236062        5.851263       10.094445        0.231507        0.048884        0.009963
  |   116       41.528476        0.471524        8.153083       18.649783       14.615224        0.095913        0.014474
  |   117       16.235213       -0.235213        5.851497       10.093705        0.231202        0.048857        0.009952
  |   118       16.235711       -0.235711        5.851397       10.094887        0.230685        0.048801        0.009941
  |   119       16.236112       -0.236112        5.851172       10.095055        0.231064        0.048865        0.009957
  |   120       16.235962       -0.235962        5.851271       10.095316        0.230642        0.048788        0.009946
  |   121       41.528504        0.471496        8.153115       18.649811       14.615174        0.095928        0.014476
  |   122       16.236068       -0.236068        5.851116       10.094633        0.231367        0.048972        0.009981
  |   123       16.236162       -0.236162        5.851287       10.095420        0.230653        0.048839        0.009963
  |   124       41.528355        0.471645        8.153322       18.649725       14.614796        0.096026        0.014485
  |   125       16.236013       -0.236013        5.851142       10.094883        0.231149        0.048880        0.009959
  |   126       16.235969       -0.235969        5.851282       10.095378        0.230588        0.048777        0.009943
  |   127       41.528909        0.471091        8.153276       18.649628       14.615399        0.096113        0.014493
  |   128       41.528360        0.471640        8.153089       18.649648       14.615078        0.096053        0.014491
  |   129       16.236165       -0.236165        5.851099       10.095253        0.231000        0.048857        0.009956
  |   130       16.235926       -0.235926        5.851280       10.095454        0.230498        0.048756        0.009938
  |   131       41.528295        0.471705        8.153230       18.649712       14.614799        0.096064        0.014489
  |   132       16.235936       -0.235936        5.851110       10.094901        0.231090        0.048876        0.009959
  |   133       16.235858       -0.235858        5.851272       10.095262        0.230601        0.048781        0.009943
  |   134       41.528225        0.471775        8.153133       18.649683       14.614921        0.096004        0.014483
  |   135       16.235946       -0.235946        5.851103       10.094727        0.231244        0.048908        0.009965
  |   136       16.235888       -0.235888        5.851283       10.095217        0.230644        0.048796        0.009947
  |   137       16.236005       -0.236005        5.851126       10.094937        0.231100        0.048882        0.009960
  |   138       16.235880       -0.235880        5.851282       10.095266        0.230603        0.048785        0.009945
  |   139       41.528296        0.471704        8.153174       18.649681       14.614927        0.096027        0.014486
  |   140       16.235980       -0.235980        5.851126       10.094919        0.231093        0.048882        0.009960
  |   141       16.235897       -0.235897        5.851278       10.095286        0.230603        0.048785        0.009945
  |   142       41.528260        0.471740        8.153152       18.649681       14.614915        0.096026        0.014486
  |   143       16.235961       -0.235961        5.851119       10.094858        0.231132        0.048890        0.009962
  |   144       16.235904       -0.235904        5.851282       10.095277        0.230612        0.048787        0.009945
  |   145        8.298254       -0.298254        3.739533        4.514749        0.040117        0.003241        0.000615
  |   146        0.717700        0.282300        0.610223        0.096479        0.010997
  |
  | Total     3561.000000        0.000000
 
  Calculating angular momentum projected density of states ...
  | Chemical potential is  -4.845704 eV.
  | writing projected DOS (shifted by the chemical potential) for species Mo to file Mo_l_proj_dos.dat.
  | writing projected DOS (raw data) for species Mo to file Mo_l_proj_dos_raw.dat.
  | writing projected DOS (shifted by the chemical potential) for species S to file S_l_proj_dos.dat.
  | writing projected DOS (raw data) for species S to file S_l_proj_dos_raw.dat.
  | writing projected DOS (shifted by the chemical potential) for species O to file O_l_proj_dos.dat.
  | writing projected DOS (raw data) for species O to file O_l_proj_dos_raw.dat.
  | writing projected DOS (shifted by the chemical potential) for species H to file H_l_proj_dos.dat.
  | writing projected DOS (raw data) for species H to file H_l_proj_dos_raw.dat.
  Post-scf processing of Kohn-Sham eigenvalues on a denser k-point grid.
  | Using dos_kgrid_factors to calculate post-scf total density of states.
  | Electron chemical potential:    -4.845703730543 eV.
  Integrating Hamiltonian matrix: batch-based integration.
  Time summed over all CPUs for integration: real work     1035.847 s, elapsed     1843.544 s => Consider using load balancing!
  Processing batch of k-points:     1     1     1
  Processing batch of k-points:     1     1     2
  Processing batch of k-points:     1     2     1
  Processing batch of k-points:     1     2     2
  Processing batch of k-points:     2     1     1
  Processing batch of k-points:     2     1     2
  Processing batch of k-points:     2     2     1
  Processing batch of k-points:     2     2     2
  | writing perturbative DOS (shifted by electron chemical potential) to file KS_dos_total.dat
  | writing perturbative DOS (raw data) to file KS_dos_total_raw.dat

  Perturbative DOS                                        :  max(cpu_time) wall_clock(cpu1)
  | Total Time                                            :       2467.808         2468.055
  ------------------------------------------------------------
  Plotting bands using SCALAPACK
  Integrating Hamiltonian matrix: batch-based integration.
  Time summed over all CPUs for integration: real work      978.595 s, elapsed     1801.810 s => Consider using load balancing!
  Solving hermitian generalised eigenvalue problem by standard ScaLAPACK.
  Transforming overlap matrix with ScaLAPACK and checking for singularities.
  k-point 1: Overlap matrix is nonsingular, using Cholesky decomposition
  | Lowest eigenvalue:  0.217985E-03
  Factoring overlap matrix with Cholesky decomposition
  Using Cholesky factor for transformation
  Using 2-stage complex ELPA solver
  Solving hermitian generalised eigenvalue problem by standard ScaLAPACK.
  Transforming overlap matrix with ScaLAPACK and checking for singularities.
  k-point 1: Overlap matrix is nonsingular, using Cholesky decomposition
  | Lowest eigenvalue:  0.217986E-03
  Factoring overlap matrix with Cholesky decomposition
  Using Cholesky factor for transformation
  Using 2-stage complex ELPA solver
  Solving hermitian generalised eigenvalue problem by standard ScaLAPACK.
  Transforming overlap matrix with ScaLAPACK and checking for singularities.
  k-point 1: Overlap matrix is nonsingular, using Cholesky decomposition
  | Lowest eigenvalue:  0.217989E-03
  Factoring overlap matrix with Cholesky decomposition
  Using Cholesky factor for transformation
  Using 2-stage complex ELPA solver
"Band gap" along reciprocal space direction number:    1
  |Lowest unoccupied state: -.4319E+01eV
  |Highest occupied state:   -.4844E+01eV

  Solving hermitian generalised eigenvalue problem by standard ScaLAPACK.
  Transforming overlap matrix with ScaLAPACK and checking for singularities.
  k-point 1: Overlap matrix is nonsingular, using Cholesky decomposition
  | Lowest eigenvalue:  0.217989E-03
  Factoring overlap matrix with Cholesky decomposition
  Using Cholesky factor for transformation
  Using 2-stage complex ELPA solver
  Solving hermitian generalised eigenvalue problem by standard ScaLAPACK.
  Transforming overlap matrix with ScaLAPACK and checking for singularities.
  k-point 1: Overlap matrix is nonsingular, using Cholesky decomposition
  | Lowest eigenvalue:  0.217982E-03
  Factoring overlap matrix with Cholesky decomposition
  Using Cholesky factor for transformation
  Using 2-stage complex ELPA solver
  Solving hermitian generalised eigenvalue problem by standard ScaLAPACK.
  Transforming overlap matrix with ScaLAPACK and checking for singularities.
  k-point 1: Overlap matrix is nonsingular, using Cholesky decomposition
  | Lowest eigenvalue:  0.217969E-03
  Factoring overlap matrix with Cholesky decomposition
  Using Cholesky factor for transformation
  Using 2-stage complex ELPA solver
"Band gap" along reciprocal space direction number:    2
  |Lowest unoccupied state: -.4145E+01eV
  |Highest occupied state:   -.4845E+01eV

  Solving hermitian generalised eigenvalue problem by standard ScaLAPACK.
  Transforming overlap matrix with ScaLAPACK and checking for singularities.
  k-point 1: Overlap matrix is nonsingular, using Cholesky decomposition
  | Lowest eigenvalue:  0.217967E-03
  Factoring overlap matrix with Cholesky decomposition
  Using Cholesky factor for transformation
  Using 2-stage complex ELPA solver
  Solving hermitian generalised eigenvalue problem by standard ScaLAPACK.
  Transforming overlap matrix with ScaLAPACK and checking for singularities.
  k-point 1: Overlap matrix is nonsingular, using Cholesky decomposition
  | Lowest eigenvalue:  0.217970E-03
  Factoring overlap matrix with Cholesky decomposition
  Using Cholesky factor for transformation
  Using 2-stage complex ELPA solver
  Solving hermitian generalised eigenvalue problem by standard ScaLAPACK.
  Transforming overlap matrix with ScaLAPACK and checking for singularities.
  k-point 1: Overlap matrix is nonsingular, using Cholesky decomposition
  | Lowest eigenvalue:  0.217982E-03
  Factoring overlap matrix with Cholesky decomposition
  Using Cholesky factor for transformation
  Using 2-stage complex ELPA solver
"Band gap" along reciprocal space direction number:    3
  |Lowest unoccupied state: -.4319E+01eV
  |Highest occupied state:   -.4844E+01eV

  Solving hermitian generalised eigenvalue problem by standard ScaLAPACK.
  Transforming overlap matrix with ScaLAPACK and checking for singularities.
  k-point 1: Overlap matrix is nonsingular, using Cholesky decomposition
  | Lowest eigenvalue:  0.217985E-03
  Factoring overlap matrix with Cholesky decomposition
  Using Cholesky factor for transformation
  Using 2-stage complex ELPA solver
  Solving hermitian generalised eigenvalue problem by standard ScaLAPACK.
  Transforming overlap matrix with ScaLAPACK and checking for singularities.
  k-point 1: Overlap matrix is nonsingular, using Cholesky decomposition
  | Lowest eigenvalue:  0.217976E-03
  Factoring overlap matrix with Cholesky decomposition
  Using Cholesky factor for transformation
  Using 2-stage complex ELPA solver
  Solving hermitian generalised eigenvalue problem by standard ScaLAPACK.
  Transforming overlap matrix with ScaLAPACK and checking for singularities.
  k-point 1: Overlap matrix is nonsingular, using Cholesky decomposition
  | Lowest eigenvalue:  0.217962E-03
  Factoring overlap matrix with Cholesky decomposition
  Using Cholesky factor for transformation
  Using 2-stage complex ELPA solver
"Band gap" along reciprocal space direction number:    4
  |Lowest unoccupied state: -.4319E+01eV
  |Highest occupied state:   -.4844E+01eV


  Band Structure                                          :  max(cpu_time) wall_clock(cpu1)
  | Total Time                                            :       1427.877         1428.085
  ------------------------------------------------------------

------------------------------------------------------------------------------
  Final output of selected total energy values:

  The following output summarizes some interesting total energy values
  at the end of a run (AFTER all relaxation, molecular dynamics, etc.).

  | Total energy of the DFT / Hartree-Fock s.c.f. calculation      :       -6385924.297395756 eV
  | Final zero-broadening corrected energy (caution - metals only) :       -6385924.300174009 eV
  | For reference only, the value of 1 Hartree used in FHI-aims is :             27.211384500 eV

  Before relying on these values, please be sure to understand exactly which
  total energy value is referred to by a given number. Different objects may
  all carry the same name 'total energy'. Definitions:

  Total energy of the DFT / Hartree-Fock s.c.f. calculation:
  | Note that this energy does not include ANY quantities calculated after the
  | s.c.f. cycle, in particular not ANY RPA, MP2, etc. many-body perturbation terms.

  Final zero-broadening corrected energy:
  | For metallic systems only, a broadening of the occupation numbers at the Fermi
  | level can be extrapolated back to zero broadening by an electron-gas inspired
  | formula. For all systems that are not real metals, this value can be
  | meaningless and should be avoided.

------------------------------------------------------------------------------
  Methods described in the following list of references were used in this FHI-aims run.
  If you publish the results, please make sure to cite these reference if they apply.
  FHI-aims is an academic code, and for our developers (often, Ph.D. students
  and postdocs), scientific credit in the community is essential.
  Thank you for helping us!

  For any use of FHI-aims, please cite:

    Volker Blum, Ralf Gehrke, Felix Hanke, Paula Havu, Ville Havu,
    Xinguo Ren, Karsten Reuter, and Matthias Scheffler
    'Ab initio molecular simulations with numeric atom-centered orbitals'
    Computer Physics Communications 180, 2175-2196 (2009)
    http://dx.doi.org/10.1016/j.cpc.2009.06.022


  For the analytical stress tensor used in your run, please cite:

    Franz Knuth, Christian Carbogno, Viktor Atalla, Volker Blum, Matthias Scheffler
    'All-electron formalism for total energy strain derivatives and
    stress tensor components for numeric atom-centered orbitals'
    Computer Physics Communications 190, 33-50 (2015).
    http://dx.doi.org/10.1016/j.cpc.2015.01.003


  The scalable eigensolver library ELPA was used in your run.
  ELPA is essential especially for large systems on hundreds or thousands of CPUs.
  For ELPA, please cite:

    Andreas Marek, Volker Blum, Rainer Johanni, Ville Havu, Bruno Lang,
    Thomas Auckenthaler, Alexander Heinecke, Hans-Joachim Bungartz, and Hermann Lederer,
    'The ELPA Library - Scalable Parallel Eigenvalue Solutions
    for Electronic Structure Theory and Computational Science'
    The Journal of Physics: Condensed Matter 26, 213201 (2014).
    http://dx.doi.org/10.1088/0953-8984/26/21/213201


  For ELPA's efficient two-stage tridiagonalization used in your run, please cite:

    T. Auckenthaler, V. Blum, H.-J. Bungartz, T. Huckle, R. Johanni, L. Kraemer,
    B. Lang, H. Lederer, and P. R. Willems,
    'Parallel solution of partial symmetric eigenvalue problems'
    'from  electronic structure calculations'
    Parallel Computing 37, 783-794 (2011).
    http://dx.doi.org/10.1016/j.parco.2011.05.002


  For the real-space grid partitioning and parallelization used in this calculation, please cite:

    Ville Havu, Volker Blum, Paula Havu, and Matthias Scheffler,
    'Efficient O(N) integration for all-electron electronic structure calculation'
    'using numerically tabulated basis functions'
    Journal of Computational Physics 228, 8367-8379 (2009).
    http://dx.doi.org/10.1016/j.jcp.2009.08.008

  Of course, there are many other important community references, e.g., those cited in the
  above references. Our list is limited to references that describe implementations in the
  FHI-aims code. The reason is purely practical (length of this list) - please credit others as well.

------------------------------------------------------------
          Leaving FHI-aims.
          Date     :  20200401, Time     :  184221.325

          Computational steps:
          | Number of self-consistency cycles          :           32
          | Number of relaxation steps                 :            0

          Detailed time accounting                     :  max(cpu_time)    wall_clock(cpu1)
          | Total time                                 :     8153.324 s        8153.625 s
          | Preparation time                           :        0.752 s           1.655 s
          | Boundary condition initalization           :        2.994 s           2.995 s
          | Grid partitioning                          :        6.163 s           6.127 s
          | Preloading free-atom quantities on grid    :        0.043 s           0.064 s
          | Free-atom superposition energy             :        0.601 s           0.602 s
          | Total time for integrations                :      357.216 s         357.292 s
          | Total time for solution of K.-S. equations :     1595.241 s        1595.460 s
          | Total time for EV reorthonormalization     :        0.000 s           0.000 s
          | Total time for density & force components  :     1808.071 s        1808.182 s
          | Total time for mixing & preconditioning    :       76.479 s          76.609 s
          | Total time for Hartree multipole update    :       25.492 s          25.577 s
          | Total time for Hartree multipole sum       :      347.647 s         347.691 s
          | Total time for total energy evaluation     :        0.198 s           0.528 s
          | Total time for scaled ZORA corrections     :        0.000 s           0.000 s
          | Total time for vdW correction              :       13.956 s          13.961 s
          | Total time for band structures, DOS        :     3896.807 s        3896.140 s

          Have a nice day.
------------------------------------------------------------
