  MPI-parallelism will be employed.
------------------------------------------------------------
          Invoking FHI-aims ...
          Version 171221_1
          Compiled on 2019/05/02 at 01:00:43 on host tiagopc.

          When using FHI-aims, please cite the following reference:

          Volker Blum, Ralf Gehrke, Felix Hanke, Paula Havu,
          Ville Havu, Xinguo Ren, Karsten Reuter, and Matthias Scheffler,
          'Ab Initio Molecular Simulations with Numeric Atom-Centered Orbitals',
          Computer Physics Communications 180, 2175-2196 (2009)

          For any questions about FHI-aims, please visit the aimsclub website
          with its forums and wiki. Contributions to both the forums and the
          wiki are warmly encouraged - they are for you, and everyone is welcome there.

------------------------------------------------------------



  Date     :  20200331, Time     :  212122.394
  Time zero on CPU 1             :   0.658650000000000E-01  s.
  Internal wall clock time zero  :           354921682.394  s.

  FHI-aims created a unique identifier for this run for later identification
  aims_uuid : F09C9143-5321-4EFC-A20F-0B5D34A36E41

  Using        4 parallel tasks.
  Task        0 on host tiagopc reporting.
  Task        1 on host tiagopc reporting.
  Task        2 on host tiagopc reporting.
  Task        3 on host tiagopc reporting.

  Performing system and environment tests:
  *** Environment variable OMP_NUM_THREADS is not set
  *** For performance reasons you might want to set it to 1
  | Stacksize not measured: no C compiler
  | Checking for scalapack...
  | Testing pdtran()...
  | All pdtran() tests passed.

  Obtaining array dimensions for all initial allocations:
  
  -----------------------------------------------------------------------
  Parsing control.in (first pass over file, find array dimensions only).
  The contents of control.in will be repeated verbatim below
  unless switched off by setting 'verbatim_writeout .false.' .
  in the first line of control.in .
  -----------------------------------------------------------------------
  
  #
  xc pbe
  vdw_correction_hirshfeld
  relativistic atomic_zora scalar
  #
  occupation_type gaussian 0.01
  n_max_pulay 8
  charge_mix_param 0.2
  sc_accuracy_rho 1e-6
  sc_accuracy_eev 1e-4
  #
  relax_geometry bfgs 5e-4
  #
  sc_accuracy_forces 1e-5
  sc_accuracy_stress 1e-5
  compute_forces .true.
  
  ################################################################################
  #
  #  FHI-aims code project
  # Volker Blum, Fritz Haber Institute Berlin, 2009
  #
  #  Suggested "tight" defaults for H atom (to be pasted into control.in file)
  #
  ################################################################################
    species        H
  #     global species definitions
      nucleus             1
      mass                1.00794
  #
      l_hartree           6
  #
      cut_pot             4.0  2.0  1.0
      basis_dep_cutoff    1e-4
  #
      radial_base         24 7.0
      radial_multiplier   2
      angular_grids       specified
        division   0.1930   50
        division   0.3175  110
        division   0.4293  194
        division   0.5066  302
        division   0.5626  434
  #      division   0.5922  590
  #      division   0.6227  974
  #      division   0.6868 1202
  #      outer_grid  770
        outer_grid  434
  ################################################################################
  #
  #  Definition of "minimal" basis
  #
  ################################################################################
  #     valence basis states
      valence      1  s   1.
  #     ion occupancy
      ion_occ      1  s   0.5
  ################################################################################
  #
  #  Suggested additional basis functions. For production calculations,
  #  uncomment them one after another (the most important basis functions are
  #  listed first).
  #
  #  Basis constructed for dimers: 0.5 A, 0.7 A, 1.0 A, 1.5 A, 2.5 A
  #
  ################################################################################
  #  "First tier" - improvements: -1014.90 meV to -62.69 meV
       hydro 2 s 2.1
       hydro 2 p 3.5
  #  "Second tier" - improvements: -12.89 meV to -1.83 meV
       hydro 1 s 0.85
       hydro 2 p 3.7
       hydro 2 s 1.2
       hydro 3 d 7
  #  "Third tier" - improvements: -0.25 meV to -0.12 meV
  #     hydro 4 f 11.2
  #     hydro 3 p 4.8
  #     hydro 4 d 9
  #     hydro 3 s 3.2
  
  
  -----------------------------------------------------------------------
  Completed first pass over input file control.in .
  -----------------------------------------------------------------------
  
  
  -----------------------------------------------------------------------
  Parsing geometry.in (first pass over file, find array dimensions only).
  The contents of geometry.in will be repeated verbatim below
  unless switched off by setting 'verbatim_writeout .false.' .
  in the first line of geometry.in .
  -----------------------------------------------------------------------
  
  #
  # This is the geometry file that corresponds to the current relaxation step.
  # If you do not want this file to be written, set the "write_restart_geometry" flag to .false.
  #  aims_uuid : D2719886-4A39-4B02-A80D-EB3DB0C6112C
  #
  atom      -0.00000000      0.00000000      0.22494197 H
  atom      -0.00000000      0.00000000      0.97505803 H
  #
  # What follows is the current estimated Hessian matrix constructed by the BFGS algorithm.
  # This is NOT the true Hessian matrix of the system.
  # If you do not want this information here, switch it off using the "hessian_to_restart_geometry" keyword.
  #
  trust_radius             0.1000000015
  hessian_block                1       1           2.000000          -0.000000           0.000000          -0.000000           2.00000
  hessian_block                1       2           0.000000          -0.000000           0.000000          -0.000000          -0.00000
  hessian_block                2       2           2.000000          -0.000000           0.000000          -0.000000           2.00000
  
  -----------------------------------------------------------------------
  Completed first pass over input file geometry.in .
  -----------------------------------------------------------------------
  

  Basic array size parameters:
  | Number of species                 :        1
  | Number of atoms                   :        2
  | Max. basis fn. angular momentum   :        2
  | Max. atomic/ionic basis occupied n:        1
  | Max. number of basis fn. types    :        2
  | Max. radial fns per species/type  :        6
  | Max. logarithmic grid size        :     1131
  | Max. radial integration grid size :       49
  | Max. angular integration grid size:      434
  | Max. angular grid division number :        8
  | Radial grid for Hartree potential :     1131
  | Number of spin channels           :        1

------------------------------------------------------------
          Reading file control.in.
------------------------------------------------------------
  XC: Using PBE gradient-corrected functionals.
  Scalar relativistic treatment of kinetic energy: on-site free-atom approximation to ZORA.
  Occupation type: Gaussian broadening, width =   0.100000E-01 eV.
  Pulay mixing - number of memorized iterations:    8
  Charge density mixing - mixing parameter:     0.2000
  Convergence accuracy of self-consistent charge density:  0.1000E-05
  Convergence accuracy of sum of eigenvalues:  0.1000E-03
  Geometry relaxation: Modified BFGS - TRM (trust radius method, i.e., trusted quadratic extrapolation).
  Convergence accuracy for geometry relaxation: Maximum force <   0.500000E-03 eV/A.
  Convergence accuracy of forces:  0.1000E-04
  Convergence accuracy of analytical stress:  0.1000E-04
  Forces will be computed.
 
  Reading configuration options for species H                   .
  | Found nuclear charge :   1.0000
  | Found atomic mass :    1.00794000000000      amu
  | Found l_max for Hartree potential  :   6
  | Found cutoff potl. onset [A], width [A], scale factor :    4.00000    2.00000    1.00000
  | Threshold for basis-dependent cutoff potential is   0.100000E-03
  | Found data for basic radial integration grid :    24 points, outermost radius =    7.000 A
  | Found multiplier for basic radial grid :   2
  | Found angular grid specification: user-specified.
  | Specified grid contains     6 separate shells.
  | Check grid settings after all constraints further below.
  | Found free-atom valence shell :  1 s   1.000
  | No ionic wave fns used. Skipping ion_occ.
  | Found hydrogenic basis function :  2 s   2.100
  | Found hydrogenic basis function :  2 p   3.500
  | Found hydrogenic basis function :  1 s   0.850
  | Found hydrogenic basis function :  2 p   3.700
  | Found hydrogenic basis function :  2 s   1.200
  | Found hydrogenic basis function :  3 d   7.000
  Species H                   : Missing cutoff potential type.
  Defaulting to exp(1/x)/(1-x)^2 type cutoff potential.
  Species H : No 'logarithmic' tag. Using default grid for free atom:
  | Default logarithmic grid data [bohr] : 0.1000E-03 0.1000E+03 0.1012E+01
  Species H : On-site basis accuracy parameter (for Gram-Schmidt orthonormalisation) not specified.
  Using default value basis_acc =  0.1000000E-03.
  Species H                   : Using default innermost maximum threshold i_radial=  2 for radial functions.
  Species H                   : Default cutoff onset for free atom density etc. : 0.40000000E+01 AA.
  Species H                   : Basic radial grid will be enhanced according to radial_multiplier =   2, to contain    49 grid points.
 
  Finished reading input file 'control.in'. Consistency checks are next.
 
  MPI_IN_PLACE appears to work with this MPI implementation.
  | Keeping use_mpi_in_place .true. (see manual).
  Target number of points in a grid batch is not set. Defaulting to  100
  Method for grid partitioning is not set. Defaulting to parallel hash+maxmin partitioning.
  Batch size limit is not set. Defaulting to    200
  By default, will store active basis functions for each batch.
  If in need of memory, prune_basis_once .false. can be used to disable this option.
  communication_type for Hartree potential was not specified.
  Defaulting to calc_hartree .
  Defaulting to Pulay charge density mixer.
  Pulay mixer: Number of initial linear mixing iterations not set.
  Defaulting to    0 iterations.
  Work space size for distributed Hartree potential not set.
  Defaulting to   0.200000E+03 MB.
  Algorithm-dependent basis array size parameters:
  | n_max_pulay                         :        8
  Maximum number of self-consistency iterations not provided.
  Presetting  1000 iterations.
  Presetting      1001 iterations before the initial mixing cycle
  is restarted anyway using the sc_init_iter criterion / keyword.
  Presetting a factor      1.000 between actual scf density residual
  and density convergence criterion sc_accuracy_rho below which sc_init_iter
  takes no effect.
  No maximum number of relaxation steps, defaulting to     1000
  Using explicit Hessian from geometry.in.
  No maximum energy tolerance for TRM/BFGS moves, defaulting to   0.200000E-03
  No harmonic length scale. Defaulting to   0.250000E-01 A.
  No trust radius initializer. Defaulting to   0.200000E+00 A.
  Handling of forces: Unphysical translation and rotation will be removed from forces.
  No accuracy limit for integral partition fn. given. Defaulting to  0.1000E-14.
  No threshold value for u(r) in integrations given. Defaulting to  0.1000E-05.
  No accuracy for occupation numbers given. Defaulting to  0.1000E-12.
  No threshold value for occupation numbers given. Defaulting to  0.0000E+00.
  No accuracy for fermi level given. Defaulting to  0.1000E-19.
  Maximum # of iterations to find E_F not set. Defaulting to  200.
  Preferred method for the eigenvalue solver ('KS_method') not specified in 'control.in'.
  Calling BLACS routine to test compilation state
  Since ScaLAPACK support is enabled, defaulting to 'elsi'.
  Will not use alltoall communication since running on < 1024 CPUs.
  Threshold for basis singularities not set.
  Default threshold for basis singularities:  0.1000E-04
  partition_type (choice of integration weights) for integrals was not specified.
  | Using a version of the partition function of Stratmann and coworkers ('stratmann_smoother').
  | At each grid point, the set of atoms used to build the partition table is smoothly restricted to
  | only those atoms whose free-atom density would be non-zero at that grid point.
  Partitioning for Hartree potential was not defined. Using partition_type for integrals.
  | Adjusted default value of keyword multip_moments_threshold to:       0.10000000E-11
  | This value may affect high angular momentum components of the Hartree potential in periodic systems.
  Spin handling was not defined in control.in. Defaulting to unpolarized case.
  No q(lm)/r^(l+1) cutoff set for long-range Hartree potential.
  | Using default value of  0.100000E-09 .
  | Verify using the multipole_threshold keyword.
  Defaulting to new monopole extrapolation.
  Density update method: automatic selection selected.
  Geometry relaxation: A file "geometry.in.next_step" is written out by default after each step.
  | This file contains the geometry of the current relaxation step as well as
  | the current Hessian matrix needed to restart the relaxation algorithm.
  | If you do not want part or all of this information, use the keywords
  | "write_restart_geometry" or "hessian_to_restart_geometry" to switch the output off.
------------------------------------------------------------


------------------------------------------------------------
          Reading geometry description geometry.in.
------------------------------------------------------------
  Input structure read successfully.
  The structure contains        2 atoms,  and a total of          2.000 electrons.

  Input geometry:
  | No unit cell requested.
  | Atomic structure:
  |       Atom                x [A]            y [A]            z [A]
  |    1: Species H             0.00000000        0.00000000        0.22494197
  |    2: Species H             0.00000000        0.00000000        0.97505803
  |

  | The smallest distance between any two atoms is         0.75011606 AA.
  |
  | The first atom of this pair is atom number                      1 .
  | The second atom of this pair is atom number                     2 .

  Number of empty states per atom not set in control.in - providing a guess from actual geometry.
  | Total number of empty states used during s.c.f. cycle:        3
  If you use a very high smearing, use empty_states (per atom!) in control.in to increase this value.

  Structure-dependent array size parameters: 
  | Maximum number of distinct radial functions  :        7
  | Maximum number of basis functions            :       30
  | Number of Kohn-Sham states (occupied + empty):        4
------------------------------------------------------------

------------------------------------------------------------
          Preparing all fixed parts of the calculation.
------------------------------------------------------------
  Determining machine precision:
    2.225073858507201E-308
  Setting up grids for atomic and cluster calculations.

  Creating wave function, potential, and density for free atoms.

  Species: H

  List of occupied orbitals and eigenvalues:
    n    l              occ      energy [Ha]    energy [eV]
    1    0           1.0000        -0.238386        -6.4868

  Creating fixed part of basis set: Ionic, confined, hydrogenic.
 
  H                    hydrogenic:
 
  List of hydrogenic basis orbitals: 
    n    l      effective z      eigenvalue [eV]  inner max. [A]     outer max. [A]     outer radius [A]   
    2    0         2.100000       -14.9965           0.193243           1.317208           5.373006
    2    1         3.500000       -41.6672           0.602369           0.602369           4.056063
    1    0         0.850000        -9.8292           0.624871           0.624871           5.373006
    2    1         3.700000       -46.5653           0.573622           0.573622           3.910002
    2    0         1.200000        -4.5995           0.334980           2.228188           5.505995
    3    2         7.000000       -74.0753           0.680699           0.680699           3.769201
 

  Adding cutoff potential to free-atom effective potential.
  Creating atomic-like basis functions for current effective potential.

  Species H                   :

  List of atomic basis orbitals and eigenvalues:
    n    l      energy [Ha]    energy [eV]    outer radius [A]
    1    0        -0.238386        -6.4868       5.373006

  Assembling full basis from fixed parts.
  | Species H :   atomic orbital   1 s accepted.
  | Species H :    hydro orbital   2 s accepted.
  | Species H :    hydro orbital   1 s accepted.
  | Species H :    hydro orbital   2 s accepted.
  | Species H :    hydro orbital   2 p accepted.
  | Species H :    hydro orbital   2 p accepted.
  | Species H :    hydro orbital   3 d accepted.
 
  Basis size parameters after reduction:
  | Total number of radial functions:        7
  | Total number of basis functions :       30
 
  Per-task memory consumption for arrays in subroutine allocate_ext:
  |           2.027844MB.
  Testing on-site integration grid accuracy.
  |  Species  Function  <phi|h_atom|phi> (log., in eV)  <phi|h_atom|phi> (rad., in eV)
           1        1                 -6.4870767962                 -6.4871688290
           1        2                 13.5032046589                 13.5028982997
           1        3                 32.8195184817                 32.8119941656
           1        4                 33.8513856511                 33.7670005767 ***
           1        5                 28.8544614965                 28.8544615203
           1        6                 59.6326952547                 59.6327656460
           1        7                 60.2719308513                 60.2719305949
 * Note: Onsite integrals marked "***" above are less accurate than
 * onsite_accuracy_threshold =    0.03000 eV. Usually, this is harmless.
 * When in doubt, tighten the "radial" and/or "radial_multiplier" flags to check.

  Preparing densities etc. for the partition functions (integrals / Hartree potential).

  Preparations completed.
  max(cpu_time)          :      0.102 s.
  Wall clock time (cpu1) :      0.103 s.
------------------------------------------------------------

------------------------------------------------------------
          Begin self-consistency loop: Initialization.

          Date     :  20200331, Time     :  212122.956
------------------------------------------------------------

  Initializing index lists of integration centers etc. from given atomic structure:
  | Number of centers in hartree potential         :         2
  | Number of centers in hartree multipole         :         2
  | Number of centers in electron density summation:         2
  | Number of centers in basis integrals           :         2
  | Number of centers in integrals                 :         2
  | Number of centers in hamiltonian               :         2
  Initializing relaxation algorithms.
  * Using 4 tasks for Scalapack Eigenvalue solver.
  Detailed listing of tasks and assigned k-points:
  (for non-periodic systems, the "k-point" denotes an internal label only)
   Task     0 k-point     1 on tiagopc
   Task     1 k-point     1 on tiagopc
   Task     2 k-point     1 on tiagopc
   Task     3 k-point     1 on tiagopc
  Tasks:     4 split into      2 X      2 BLACS grid
  Calculating block size based on n_basis =           30  max_nprow =            2  max_npcol =            2
  ScaLAPACK block size set to:            8
  Allocating        0.002 MB for ovlp
  Allocating        0.002 MB for ham
  Allocating        0.002 MB for eigenvec
  Required Scalapack workspace - INTEGER:            1  REAL:             1
  Partitioning the integration grid into batches with parallel hashing+maxmin method.
  | Number of batches:      483
  | Maximal batch size:     122
  | Minimal batch size:      50
  | Average batch size:      59.834
  | Standard deviation of batch sizes:      13.940

  Integration load balanced across     4 MPI tasks.
  Work distribution over tasks is as follows:
  Task     0 has       7290 integration points.
  Task     1 has       7185 integration points.
  Task     2 has       7186 integration points.
  Task     3 has       7239 integration points.
  Initializing partition tables, free-atom densities, potentials, etc. across the integration grid (initialize_grid_storage).
  | initialize_grid_storage: Actual outermost partition radius vs. multipole_radius_free
  | (-- VB: in principle, multipole_radius_free should be larger, hence this output)
  | Species        1: Confinement radius =              6.000000000000000 AA, multipole_radius_free =              6.071692442739658 AA.
  | Species        1: outer_partition_radius set to              6.071692442739658 AA .
  | Original list of interatomic distances with           2 x          2 entries is created.
  | Net number of integration points:    28900
  | of which are non-zero points    :    26596
  Renormalizing the initial density to the exact electron count on the 3D integration grid.
  | Initial density: Formal number of electrons (from input files) :       2.0000000000
  | Integrated number of electrons on 3D grid     :       1.9999994279
  | Charge integration error                      :      -0.0000005721
  | Normalization factor for density and gradient :       1.0000002861
  Obtaining max. number of non-zero basis functions in each batch (get_n_compute_maxes).
  | Maximal number of non-zero basis functions:       30 in task     0
  | Maximal number of non-zero basis functions:       30 in task     1
  | Maximal number of non-zero basis functions:       30 in task     2
  | Maximal number of non-zero basis functions:       30 in task     3
  Selecting the method for density update.
  Loop over occupied states selected for charge density update.
  Allocating        0.001 MB for KS_eigenvector
  Integrating Hamiltonian matrix: batch-based integration.
  Time summed over all CPUs for integration: real work        0.076 s, elapsed        0.078 s
  Integrating overlap matrix.
  Time summed over all CPUs for integration: real work        0.024 s, elapsed        0.025 s
  Deallocating overlap matrix.

  Updating Kohn-Sham eigenvalues and eigenvectors using ELSI and the ELPA eigensolver.
  ELPA settings:
  | ELPA solver          1
  | Time full => band           :     0.000 s
  | Time band => tridiagonal    :     0.001 s
  | Time solve tridiagonal      :     0.001 s
  Overlap matrix is nonsingular
  | Lowest eigenvalue of overlap  :  0.25E-03
  | Highest eigenvalue of overlap :  0.20E+01
  Finished singularity check of overlap matrix
  | Time :     0.003 s
  Finished Cholesky decomposition
  | Time :     0.001 s
  Finished transformation to standard eigenproblem
  | Time :     0.001 s
  Starting ELPA eigensolver
  | Time full => tridiagonal    :     0.000 s
  | Time solve tridiagonal      :     0.000 s
  | Time ev tridiagonal => full :     0.000 s
  Finished solving standard eigenproblem
  | Time :     0.000 s
  Finished back-transformation of eigenvectors
  | Time :     0.000 s

  Obtaining occupation numbers and chemical potential using ELSI.
  | Chemical potential (Fermi level):    -5.11675631eV
  Writing Kohn-Sham eigenvalues.

  State    Occupation    Eigenvalue [Ha]    Eigenvalue [eV]
      1       2.00000          -0.501241          -13.63946
      2       0.00000          -0.023663           -0.64390
      3       0.00000           0.019896            0.54141
      4       0.00000           0.125166            3.40595

  Highest occupied state (VBM) at    -13.63946034 eV
  | Occupation number:      2.00000000

  Lowest unoccupied state (CBM) at    -0.64390104 eV
  | Occupation number:      0.00000000

  Overall HOMO-LUMO gap:     12.99555930 eV.
  Calculating total energy contributions from superposition of free atom densities.

  Total energy components:
  | Sum of eigenvalues            :          -1.00248191 Ha         -27.27892069 eV
  | XC energy correction          :          -0.56335717 Ha         -15.32972849 eV
  | XC potential correction       :           0.72344650 Ha          19.68598090 eV
  | Free-atom electrostatic energy:          -0.34926478 Ha          -9.50397834 eV
  | Hartree energy correction     :           0.00000000 Ha           0.00000000 eV
  | vdW energy correction         :           0.00000000 Ha           0.00000000 eV
  | Entropy correction            :           0.00000000 Ha           0.00000000 eV
  | ---------------------------
  | Total energy                  :          -1.19165736 Ha         -32.42664662 eV
  | Total energy, T -> 0          :          -1.19165736 Ha         -32.42664662 eV  <-- do not rely on this value for anything but (periodic) metals
  | Electronic free energy        :          -1.19165736 Ha         -32.42664662 eV

  Derived energy quantities:
  | Kinetic energy                :           0.67215403 Ha          18.29024166 eV
  | Electrostatic energy          :          -1.30045422 Ha         -35.38715978 eV
  | Energy correction for multipole
  | error in Hartree potential    :           0.00000000 Ha           0.00000000 eV
  | Sum of eigenvalues per atom                           :         -13.63946034 eV
  | Total energy (T->0) per atom                          :         -16.21332331 eV  <-- do not rely on this value for anything but (periodic) metals
  | Electronic free energy per atom                       :         -16.21332331 eV
  Initialize hartree_potential_storage
  Max. number of atoms included in rho_multipole:            2

  End scf initialization - timings             :  max(cpu_time)    wall_clock(cpu1)
  | Time for scf. initialization               :        0.053 s           0.065 s
  | Boundary condition initialization          :        0.000 s           0.001 s
  | Relaxation initialization                  :        0.000 s           0.001 s
  | Integration                                :        0.025 s           0.026 s
  | Solution of K.-S. eqns.                    :        0.003 s           0.006 s
  | Grid partitioning                          :        0.012 s           0.014 s
  | Preloading free-atom quantities on grid    :        0.003 s           0.003 s
  | Free-atom superposition energy             :        0.003 s           0.004 s
  | Total energy evaluation                    :        0.000 s           0.000 s

  Partial memory accounting:
  | Current value for overall tracked memory usage on task 0  :           0.011 MB
  | Peak value for overall tracked memory usage on task 0     :           0.111 MB after allocating wave
  | Largest tracked array allocation on task 0 so far         :           0.029 MB  when allocating H_times_psi
  Note:  These values currently only include a subset of arrays which are explicitly tracked.
  The "true" memory usage will be greater.
------------------------------------------------------------

------------------------------------------------------------
          Begin self-consistency iteration #    1

  Date     :  20200331, Time     :  212123.022
------------------------------------------------------------
  Evaluating new KS density.
  Integration grid: deviation in total charge (<rho> - N_e) =  -6.661338E-16
  Pulay mixing of updated and previous charge densities.

  Evaluating partitioned Hartree potential by multipole expansion.
  | Analytical far-field extrapolation by fixed multipoles:
  | Hartree multipole sum: apparent total charge =  -0.319770E-06
  Summing up the Hartree potential.
  Time summed over all CPUs for potential: real work        0.065 s, elapsed        0.068 s
  | RMS charge density error from multipole expansion :   0.300928E-03

  Integrating Hamiltonian matrix: batch-based integration.
  Time summed over all CPUs for integration: real work        0.070 s, elapsed        0.072 s

  Updating Kohn-Sham eigenvalues and eigenvectors using ELSI and the ELPA eigensolver.
  ELPA settings:
  | ELPA solver          1
  Finished transformation to standard eigenproblem
  | Time :     0.000 s
  Starting ELPA eigensolver
  | Time full => tridiagonal    :     0.000 s
  | Time solve tridiagonal      :     0.000 s
  | Time ev tridiagonal => full :     0.000 s
  Finished solving standard eigenproblem
  | Time :     0.000 s
  Finished back-transformation of eigenvectors
  | Time :     0.000 s

  Obtaining occupation numbers and chemical potential using ELSI.
  | Chemical potential (Fermi level):    -4.58967448eV
  Writing Kohn-Sham eigenvalues.

  State    Occupation    Eigenvalue [Ha]    Eigenvalue [eV]
      1       2.00000          -0.470729          -12.80918
      2       0.00000          -0.012727           -0.34631
      3       0.00000           0.025011            0.68058
      4       0.00000           0.133394            3.62983

  Highest occupied state (VBM) at    -12.80917803 eV
  | Occupation number:      2.00000000

  Lowest unoccupied state (CBM) at    -0.34631122 eV
  | Occupation number:      0.00000000

  Overall HOMO-LUMO gap:     12.46286682 eV.

  Total energy components:
  | Sum of eigenvalues            :          -0.94145728 Ha         -25.61835606 eV
  | XC energy correction          :          -0.59281739 Ha         -16.13138199 eV
  | XC potential correction       :           0.76101679 Ha          20.70832047 eV
  | Free-atom electrostatic energy:          -0.34926478 Ha          -9.50397834 eV
  | Hartree energy correction     :          -0.05855445 Ha          -1.59334757 eV
  | vdW energy correction         :           0.00000000 Ha           0.00000000 eV
  | Entropy correction            :           0.00000000 Ha           0.00000000 eV
  | ---------------------------
  | Total energy                  :          -1.18107711 Ha         -32.13874349 eV
  | Total energy, T -> 0          :          -1.18107711 Ha         -32.13874349 eV  <-- do not rely on this value for anything but (periodic) metals
  | Electronic free energy        :          -1.18107711 Ha         -32.13874349 eV

  Derived energy quantities:
  | Kinetic energy                :           0.80134197 Ha          21.80562453 eV
  | Electrostatic energy          :          -1.38960170 Ha         -37.81298604 eV
  | Energy correction for multipole
  | error in Hartree potential    :          -0.00003166 Ha          -0.00086163 eV
  | Sum of eigenvalues per atom                           :         -12.80917803 eV
  | Total energy (T->0) per atom                          :         -16.06937175 eV  <-- do not rely on this value for anything but (periodic) metals
  | Electronic free energy per atom                       :         -16.06937175 eV

  Self-consistency convergence accuracy:
  | Change of charge density      :  0.1714E+00
  | Change of sum of eigenvalues  :  0.1661E+01 eV
  | Change of total energy        :  0.2879E+00 eV

  End self-consistency iteration #     1       :  max(cpu_time)    wall_clock(cpu1)
  | Time for this iteration                    :        0.055 s           0.056 s
  | Charge density update                      :        0.014 s           0.014 s
  | Density mixing                             :        0.001 s           0.001 s
  | Hartree multipole update                   :        0.004 s           0.005 s
  | Hartree multipole summation                :        0.017 s           0.017 s
  | Integration                                :        0.018 s           0.018 s
  | Solution of K.-S. eqns.                    :        0.000 s           0.001 s
  | Total energy evaluation                    :        0.000 s           0.000 s

  Partial memory accounting:
  | Current value for overall tracked memory usage on task 0  :           0.011 MB
  | Peak value for overall tracked memory usage on task 0     :           0.128 MB after allocating gradient_basis_wave
  | Largest tracked array allocation on task 0 so far         :           0.088 MB  when allocating gradient_basis_wave
  Note:  These values currently only include a subset of arrays which are explicitly tracked.
  The "true" memory usage will be greater.
------------------------------------------------------------

------------------------------------------------------------
          Begin self-consistency iteration #    2

  Date     :  20200331, Time     :  212123.078
------------------------------------------------------------
  Evaluating new KS density.
  Integration grid: deviation in total charge (<rho> - N_e) =  -2.220446E-15
  Pulay mixing of updated and previous charge densities.

  Evaluating partitioned Hartree potential by multipole expansion.
  | Analytical far-field extrapolation by fixed multipoles:
  | Hartree multipole sum: apparent total charge =   0.463072E-06
  Summing up the Hartree potential.
  Time summed over all CPUs for potential: real work        0.063 s, elapsed        0.065 s
  | RMS charge density error from multipole expansion :   0.119756E-02

  Integrating Hamiltonian matrix: batch-based integration.
  Time summed over all CPUs for integration: real work        0.073 s, elapsed        0.074 s

  Updating Kohn-Sham eigenvalues and eigenvectors using ELSI and the ELPA eigensolver.
  ELPA settings:
  | ELPA solver          1
  Finished transformation to standard eigenproblem
  | Time :     0.000 s
  Starting ELPA eigensolver
  | Time full => tridiagonal    :     0.000 s
  | Time solve tridiagonal      :     0.000 s
  | Time ev tridiagonal => full :     0.000 s
  Finished solving standard eigenproblem
  | Time :     0.000 s
  Finished back-transformation of eigenvectors
  | Time :     0.000 s

  Obtaining occupation numbers and chemical potential using ELSI.
  | Chemical potential (Fermi level):    -2.91238545eV
  Highest occupied state (VBM) at    -10.25483402 eV
  | Occupation number:      2.00000000

  Lowest unoccupied state (CBM) at     0.49198576 eV
  | Occupation number:      0.00000000

  Overall HOMO-LUMO gap:     10.74681979 eV.

  Checking to see if s.c.f. parameters should be adjusted.

  Total energy components:
  | Sum of eigenvalues            :          -0.75371645 Ha         -20.50966805 eV
  | XC energy correction          :          -0.69223106 Ha         -18.83656550 eV
  | XC potential correction       :           0.88854409 Ha          24.17851475 eV
  | Free-atom electrostatic energy:          -0.34926478 Ha          -9.50397834 eV
  | Hartree energy correction     :          -0.26009174 Ha          -7.07745625 eV
  | vdW energy correction         :           0.00000000 Ha           0.00000000 eV
  | Entropy correction            :           0.00000000 Ha           0.00000000 eV
  | ---------------------------
  | Total energy                  :          -1.16675994 Ha         -31.74915339 eV
  | Total energy, T -> 0          :          -1.16675994 Ha         -31.74915339 eV  <-- do not rely on this value for anything but (periodic) metals
  | Electronic free energy        :          -1.16675994 Ha         -31.74915339 eV

  Derived energy quantities:
  | Kinetic energy                :           1.15108794 Ha          31.32269652 eV
  | Electrostatic energy          :          -1.62561682 Ha         -44.23528441 eV
  | Energy correction for multipole
  | error in Hartree potential    :          -0.00012038 Ha          -0.00327577 eV
  | Sum of eigenvalues per atom                           :         -10.25483402 eV
  | Total energy (T->0) per atom                          :         -15.87457669 eV  <-- do not rely on this value for anything but (periodic) metals
  | Electronic free energy per atom                       :         -15.87457669 eV

  Self-consistency convergence accuracy:
  | Change of charge density      :  0.1282E+00
  | Change of sum of eigenvalues  :  0.5109E+01 eV
  | Change of total energy        :  0.3896E+00 eV

  End self-consistency iteration #     2       :  max(cpu_time)    wall_clock(cpu1)
  | Time for this iteration                    :        0.055 s           0.055 s
  | Charge density update                      :        0.014 s           0.014 s
  | Density mixing                             :        0.001 s           0.001 s
  | Hartree multipole update                   :        0.005 s           0.005 s
  | Hartree multipole summation                :        0.016 s           0.016 s
  | Integration                                :        0.019 s           0.019 s
  | Solution of K.-S. eqns.                    :        0.000 s           0.000 s
  | Total energy evaluation                    :        0.000 s           0.000 s

  Partial memory accounting:
  | Current value for overall tracked memory usage on task 0  :           0.012 MB
  | Peak value for overall tracked memory usage on task 0     :           0.128 MB after allocating gradient_basis_wave
  | Largest tracked array allocation on task 0 so far         :           0.088 MB  when allocating gradient_basis_wave
  Note:  These values currently only include a subset of arrays which are explicitly tracked.
  The "true" memory usage will be greater.
------------------------------------------------------------

------------------------------------------------------------
          Begin self-consistency iteration #    3

  Date     :  20200331, Time     :  212123.134
------------------------------------------------------------
  Evaluating new KS density.
  Integration grid: deviation in total charge (<rho> - N_e) =   8.881784E-16
  Pulay mixing of updated and previous charge densities.

  Evaluating partitioned Hartree potential by multipole expansion.
  | Analytical far-field extrapolation by fixed multipoles:
  | Hartree multipole sum: apparent total charge =   0.384980E-06
  Summing up the Hartree potential.
  Time summed over all CPUs for potential: real work        0.064 s, elapsed        0.066 s
  | RMS charge density error from multipole expansion :   0.110236E-02

  Integrating Hamiltonian matrix: batch-based integration.
  Time summed over all CPUs for integration: real work        0.070 s, elapsed        0.072 s

  Updating Kohn-Sham eigenvalues and eigenvectors using ELSI and the ELPA eigensolver.
  ELPA settings:
  | ELPA solver          1
  Finished transformation to standard eigenproblem
  | Time :     0.000 s
  Starting ELPA eigensolver
  | Time full => tridiagonal    :     0.000 s
  | Time solve tridiagonal      :     0.000 s
  | Time ev tridiagonal => full :     0.000 s
  Finished solving standard eigenproblem
  | Time :     0.000 s
  Finished back-transformation of eigenvectors
  | Time :     0.000 s

  Obtaining occupation numbers and chemical potential using ELSI.
  | Chemical potential (Fermi level):    -3.09750090eV
  Highest occupied state (VBM) at    -10.54433755 eV
  | Occupation number:      2.00000000

  Lowest unoccupied state (CBM) at     0.41108364 eV
  | Occupation number:      0.00000000

  Overall HOMO-LUMO gap:     10.95542118 eV.

  Total energy components:
  | Sum of eigenvalues            :          -0.77499456 Ha         -21.08867509 eV
  | XC energy correction          :          -0.67982556 Ha         -18.49899484 eV
  | XC potential correction       :           0.87262736 Ha          23.74539850 eV
  | Free-atom electrostatic energy:          -0.34926478 Ha          -9.50397834 eV
  | Hartree energy correction     :          -0.23538473 Ha          -6.40514450 eV
  | vdW energy correction         :           0.00000000 Ha           0.00000000 eV
  | Entropy correction            :           0.00000000 Ha           0.00000000 eV
  | ---------------------------
  | Total energy                  :          -1.16684229 Ha         -31.75139428 eV
  | Total energy, T -> 0          :          -1.16684229 Ha         -31.75139428 eV  <-- do not rely on this value for anything but (periodic) metals
  | Electronic free energy        :          -1.16684229 Ha         -31.75139428 eV

  Derived energy quantities:
  | Kinetic energy                :           1.11028531 Ha          30.21240057 eV
  | Electrostatic energy          :          -1.59730204 Ha         -43.46480001 eV
  | Energy correction for multipole
  | error in Hartree potential    :          -0.00009993 Ha          -0.00271936 eV
  | Sum of eigenvalues per atom                           :         -10.54433755 eV
  | Total energy (T->0) per atom                          :         -15.87569714 eV  <-- do not rely on this value for anything but (periodic) metals
  | Electronic free energy per atom                       :         -15.87569714 eV

  Self-consistency convergence accuracy:
  | Change of charge density      :  0.7102E-02
  | Change of sum of eigenvalues  : -0.5790E+00 eV
  | Change of total energy        : -0.2241E-02 eV

  End self-consistency iteration #     3       :  max(cpu_time)    wall_clock(cpu1)
  | Time for this iteration                    :        0.055 s           0.054 s
  | Charge density update                      :        0.013 s           0.013 s
  | Density mixing                             :        0.002 s           0.002 s
  | Hartree multipole update                   :        0.004 s           0.004 s
  | Hartree multipole summation                :        0.017 s           0.017 s
  | Integration                                :        0.018 s           0.018 s
  | Solution of K.-S. eqns.                    :        0.000 s           0.000 s
  | Total energy evaluation                    :        0.000 s           0.000 s

  Partial memory accounting:
  | Current value for overall tracked memory usage on task 0  :           0.012 MB
  | Peak value for overall tracked memory usage on task 0     :           0.129 MB after allocating gradient_basis_wave
  | Largest tracked array allocation on task 0 so far         :           0.088 MB  when allocating gradient_basis_wave
  Note:  These values currently only include a subset of arrays which are explicitly tracked.
  The "true" memory usage will be greater.
------------------------------------------------------------

------------------------------------------------------------
          Begin self-consistency iteration #    4

  Date     :  20200331, Time     :  212123.189
------------------------------------------------------------
  Evaluating new KS density.
  Integration grid: deviation in total charge (<rho> - N_e) =   0.000000E+00
  Pulay mixing of updated and previous charge densities.

  Evaluating partitioned Hartree potential by multipole expansion.
  | Analytical far-field extrapolation by fixed multipoles:
  | Hartree multipole sum: apparent total charge =   0.450916E-06
  Summing up the Hartree potential.
  Time summed over all CPUs for potential: real work        0.063 s, elapsed        0.065 s
  | RMS charge density error from multipole expansion :   0.117691E-02

  Integrating Hamiltonian matrix: batch-based integration.
  Time summed over all CPUs for integration: real work        0.071 s, elapsed        0.072 s

  Updating Kohn-Sham eigenvalues and eigenvectors using ELSI and the ELPA eigensolver.
  ELPA settings:
  | ELPA solver          1
  Finished transformation to standard eigenproblem
  | Time :     0.000 s
  Starting ELPA eigensolver
  | Time full => tridiagonal    :     0.000 s
  | Time solve tridiagonal      :     0.000 s
  | Time ev tridiagonal => full :     0.000 s
  Finished solving standard eigenproblem
  | Time :     0.000 s
  Finished back-transformation of eigenvectors
  | Time :     0.000 s

  Obtaining occupation numbers and chemical potential using ELSI.
  | Chemical potential (Fermi level):    -2.94775506eV
  Highest occupied state (VBM) at    -10.34998464 eV
  | Occupation number:      2.00000000

  Lowest unoccupied state (CBM) at     0.50167384 eV
  | Occupation number:      0.00000000

  Overall HOMO-LUMO gap:     10.85165848 eV.

  Total energy components:
  | Sum of eigenvalues            :          -0.76070989 Ha         -20.69996927 eV
  | XC energy correction          :          -0.68741803 Ha         -18.70559638 eV
  | XC potential correction       :           0.88246431 Ha          24.01307564 eV
  | Free-atom electrostatic energy:          -0.34926478 Ha          -9.50397834 eV
  | Hartree energy correction     :          -0.25181574 Ha          -6.85225499 eV
  | vdW energy correction         :           0.00000000 Ha           0.00000000 eV
  | Entropy correction            :           0.00000000 Ha           0.00000000 eV
  | ---------------------------
  | Total energy                  :          -1.16674414 Ha         -31.74872334 eV
  | Total energy, T -> 0          :          -1.16674414 Ha         -31.74872334 eV  <-- do not rely on this value for anything but (periodic) metals
  | Electronic free energy        :          -1.16674414 Ha         -31.74872334 eV

  Derived energy quantities:
  | Kinetic energy                :           1.13044251 Ha          30.76090581 eV
  | Electrostatic energy          :          -1.60976862 Ha         -43.80403277 eV
  | Energy correction for multipole
  | error in Hartree potential    :          -0.00009565 Ha          -0.00260279 eV
  | Sum of eigenvalues per atom                           :         -10.34998464 eV
  | Total energy (T->0) per atom                          :         -15.87436167 eV  <-- do not rely on this value for anything but (periodic) metals
  | Electronic free energy per atom                       :         -15.87436167 eV

  Self-consistency convergence accuracy:
  | Change of charge density      :  0.1019E-01
  | Change of sum of eigenvalues  :  0.3887E+00 eV
  | Change of total energy        :  0.2671E-02 eV

  End self-consistency iteration #     4       :  max(cpu_time)    wall_clock(cpu1)
  | Time for this iteration                    :        0.055 s           0.055 s
  | Charge density update                      :        0.014 s           0.013 s
  | Density mixing                             :        0.002 s           0.002 s
  | Hartree multipole update                   :        0.004 s           0.005 s
  | Hartree multipole summation                :        0.017 s           0.016 s
  | Integration                                :        0.018 s           0.018 s
  | Solution of K.-S. eqns.                    :        0.000 s           0.001 s
  | Total energy evaluation                    :        0.000 s           0.000 s

  Partial memory accounting:
  | Current value for overall tracked memory usage on task 0  :           0.012 MB
  | Peak value for overall tracked memory usage on task 0     :           0.129 MB after allocating gradient_basis_wave
  | Largest tracked array allocation on task 0 so far         :           0.088 MB  when allocating gradient_basis_wave
  Note:  These values currently only include a subset of arrays which are explicitly tracked.
  The "true" memory usage will be greater.
------------------------------------------------------------

------------------------------------------------------------
          Begin self-consistency iteration #    5

  Date     :  20200331, Time     :  212123.244
------------------------------------------------------------
  Evaluating new KS density.
  Integration grid: deviation in total charge (<rho> - N_e) =   5.329071E-15
  Pulay mixing of updated and previous charge densities.

  Evaluating partitioned Hartree potential by multipole expansion.
  | Analytical far-field extrapolation by fixed multipoles:
  | Hartree multipole sum: apparent total charge =   0.455459E-06
  Summing up the Hartree potential.
  Time summed over all CPUs for potential: real work        0.063 s, elapsed        0.065 s
  | RMS charge density error from multipole expansion :   0.118250E-02

  Integrating Hamiltonian matrix: batch-based integration.
  Time summed over all CPUs for integration: real work        0.071 s, elapsed        0.072 s

  Updating Kohn-Sham eigenvalues and eigenvectors using ELSI and the ELPA eigensolver.
  ELPA settings:
  | ELPA solver          1
  Finished transformation to standard eigenproblem
  | Time :     0.000 s
  Starting ELPA eigensolver
  | Time full => tridiagonal    :     0.000 s
  | Time solve tridiagonal      :     0.000 s
  | Time ev tridiagonal => full :     0.000 s
  Finished solving standard eigenproblem
  | Time :     0.000 s
  Finished back-transformation of eigenvectors
  | Time :     0.000 s

  Obtaining occupation numbers and chemical potential using ELSI.
  | Chemical potential (Fermi level):    -2.93633201eV
  Highest occupied state (VBM) at    -10.33348908 eV
  | Occupation number:      2.00000000

  Lowest unoccupied state (CBM) at     0.50757810 eV
  | Occupation number:      0.00000000

  Overall HOMO-LUMO gap:     10.84106718 eV.

  Total energy components:
  | Sum of eigenvalues            :          -0.75949749 Ha         -20.66697815 eV
  | XC energy correction          :          -0.68810779 Ha         -18.72436562 eV
  | XC potential correction       :           0.88335190 Ha          24.03722809 eV
  | Free-atom electrostatic energy:          -0.34926478 Ha          -9.50397834 eV
  | Hartree energy correction     :          -0.25322561 Ha          -6.89061947 eV
  | vdW energy correction         :           0.00000000 Ha           0.00000000 eV
  | Entropy correction            :           0.00000000 Ha           0.00000000 eV
  | ---------------------------
  | Total energy                  :          -1.16674378 Ha         -31.74871350 eV
  | Total energy, T -> 0          :          -1.16674378 Ha         -31.74871350 eV  <-- do not rely on this value for anything but (periodic) metals
  | Electronic free energy        :          -1.16674378 Ha         -31.74871350 eV

  Derived energy quantities:
  | Kinetic energy                :           1.13256854 Ha          30.81875796 eV
  | Electrostatic energy          :          -1.61120453 Ha         -43.84310584 eV
  | Energy correction for multipole
  | error in Hartree potential    :          -0.00009630 Ha          -0.00262059 eV
  | Sum of eigenvalues per atom                           :         -10.33348908 eV
  | Total energy (T->0) per atom                          :         -15.87435675 eV  <-- do not rely on this value for anything but (periodic) metals
  | Electronic free energy per atom                       :         -15.87435675 eV

  Self-consistency convergence accuracy:
  | Change of charge density      :  0.6674E-03
  | Change of sum of eigenvalues  :  0.3299E-01 eV
  | Change of total energy        :  0.9840E-05 eV

  End self-consistency iteration #     5       :  max(cpu_time)    wall_clock(cpu1)
  | Time for this iteration                    :        0.056 s           0.056 s
  | Charge density update                      :        0.014 s           0.014 s
  | Density mixing                             :        0.003 s           0.003 s
  | Hartree multipole update                   :        0.005 s           0.004 s
  | Hartree multipole summation                :        0.017 s           0.017 s
  | Integration                                :        0.018 s           0.018 s
  | Solution of K.-S. eqns.                    :        0.000 s           0.000 s
  | Total energy evaluation                    :        0.000 s           0.000 s

  Partial memory accounting:
  | Current value for overall tracked memory usage on task 0  :           0.012 MB
  | Peak value for overall tracked memory usage on task 0     :           0.129 MB after allocating gradient_basis_wave
  | Largest tracked array allocation on task 0 so far         :           0.088 MB  when allocating gradient_basis_wave
  Note:  These values currently only include a subset of arrays which are explicitly tracked.
  The "true" memory usage will be greater.
------------------------------------------------------------

------------------------------------------------------------
          Begin self-consistency iteration #    6

  Date     :  20200331, Time     :  212123.300
------------------------------------------------------------
  Evaluating new KS density.
  Integration grid: deviation in total charge (<rho> - N_e) =   1.776357E-15
  Pulay mixing of updated and previous charge densities.

  Evaluating partitioned Hartree potential by multipole expansion.
  | Analytical far-field extrapolation by fixed multipoles:
  | Hartree multipole sum: apparent total charge =   0.453734E-06
  Summing up the Hartree potential.
  Time summed over all CPUs for potential: real work        0.064 s, elapsed        0.066 s
  | RMS charge density error from multipole expansion :   0.118117E-02

  Integrating Hamiltonian matrix: batch-based integration.
  Time summed over all CPUs for integration: real work        0.070 s, elapsed        0.072 s

  Updating Kohn-Sham eigenvalues and eigenvectors using ELSI and the ELPA eigensolver.
  ELPA settings:
  | ELPA solver          1
  Finished transformation to standard eigenproblem
  | Time :     0.000 s
  Starting ELPA eigensolver
  | Time full => tridiagonal    :     0.000 s
  | Time solve tridiagonal      :     0.000 s
  | Time ev tridiagonal => full :     0.000 s
  Finished solving standard eigenproblem
  | Time :     0.000 s
  Finished back-transformation of eigenvectors
  | Time :     0.000 s

  Obtaining occupation numbers and chemical potential using ELSI.
  | Chemical potential (Fermi level):    -2.93903331eV
  Highest occupied state (VBM) at    -10.33720424 eV
  | Occupation number:      2.00000000

  Lowest unoccupied state (CBM) at     0.50618703 eV
  | Occupation number:      0.00000000

  Overall HOMO-LUMO gap:     10.84339127 eV.

  Total energy components:
  | Sum of eigenvalues            :          -0.75977055 Ha         -20.67440848 eV
  | XC energy correction          :          -0.68795213 Ha         -18.72012993 eV
  | XC potential correction       :           0.88315177 Ha          24.03178234 eV
  | Free-atom electrostatic energy:          -0.34926478 Ha          -9.50397834 eV
  | Hartree energy correction     :          -0.25290805 Ha          -6.88197807 eV
  | vdW energy correction         :           0.00000000 Ha           0.00000000 eV
  | Entropy correction            :           0.00000000 Ha           0.00000000 eV
  | ---------------------------
  | Total energy                  :          -1.16674374 Ha         -31.74871248 eV
  | Total energy, T -> 0          :          -1.16674374 Ha         -31.74871248 eV  <-- do not rely on this value for anything but (periodic) metals
  | Electronic free energy        :          -1.16674374 Ha         -31.74871248 eV

  Derived energy quantities:
  | Kinetic energy                :           1.13208507 Ha          30.80560224 eV
  | Electrostatic energy          :          -1.61087668 Ha         -43.83418480 eV
  | Energy correction for multipole
  | error in Hartree potential    :          -0.00009603 Ha          -0.00261315 eV
  | Sum of eigenvalues per atom                           :         -10.33720424 eV
  | Total energy (T->0) per atom                          :         -15.87435624 eV  <-- do not rely on this value for anything but (periodic) metals
  | Electronic free energy per atom                       :         -15.87435624 eV

  Self-consistency convergence accuracy:
  | Change of charge density      :  0.2233E-03
  | Change of sum of eigenvalues  : -0.7430E-02 eV
  | Change of total energy        :  0.1016E-05 eV

  End self-consistency iteration #     6       :  max(cpu_time)    wall_clock(cpu1)
  | Time for this iteration                    :        0.057 s           0.057 s
  | Charge density update                      :        0.014 s           0.014 s
  | Density mixing                             :        0.004 s           0.004 s
  | Hartree multipole update                   :        0.004 s           0.004 s
  | Hartree multipole summation                :        0.017 s           0.017 s
  | Integration                                :        0.018 s           0.018 s
  | Solution of K.-S. eqns.                    :        0.000 s           0.000 s
  | Total energy evaluation                    :        0.000 s           0.000 s

  Partial memory accounting:
  | Current value for overall tracked memory usage on task 0  :           0.012 MB
  | Peak value for overall tracked memory usage on task 0     :           0.129 MB after allocating gradient_basis_wave
  | Largest tracked array allocation on task 0 so far         :           0.088 MB  when allocating gradient_basis_wave
  Note:  These values currently only include a subset of arrays which are explicitly tracked.
  The "true" memory usage will be greater.
------------------------------------------------------------

------------------------------------------------------------
          Begin self-consistency iteration #    7

  Date     :  20200331, Time     :  212123.357
------------------------------------------------------------
  Evaluating new KS density.
  Integration grid: deviation in total charge (<rho> - N_e) =  -3.552714E-15
  Pulay mixing of updated and previous charge densities.

  Evaluating partitioned Hartree potential by multipole expansion.
  | Analytical far-field extrapolation by fixed multipoles:
  | Hartree multipole sum: apparent total charge =   0.453703E-06
  Summing up the Hartree potential.
  Time summed over all CPUs for potential: real work        0.064 s, elapsed        0.066 s
  | RMS charge density error from multipole expansion :   0.118113E-02

  Integrating Hamiltonian matrix: batch-based integration.
  Time summed over all CPUs for integration: real work        0.071 s, elapsed        0.073 s

  Updating Kohn-Sham eigenvalues and eigenvectors using ELSI and the ELPA eigensolver.
  ELPA settings:
  | ELPA solver          1
  Finished transformation to standard eigenproblem
  | Time :     0.000 s
  Starting ELPA eigensolver
  | Time full => tridiagonal    :     0.000 s
  | Time solve tridiagonal      :     0.000 s
  | Time ev tridiagonal => full :     0.000 s
  Finished solving standard eigenproblem
  | Time :     0.000 s
  Finished back-transformation of eigenvectors
  | Time :     0.000 s

  Obtaining occupation numbers and chemical potential using ELSI.
  | Chemical potential (Fermi level):    -2.93911299eV
  Highest occupied state (VBM) at    -10.33732299 eV
  | Occupation number:      2.00000000

  Lowest unoccupied state (CBM) at     0.50614803 eV
  | Occupation number:      0.00000000

  Overall HOMO-LUMO gap:     10.84347102 eV.

  Total energy components:
  | Sum of eigenvalues            :          -0.75977928 Ha         -20.67464599 eV
  | XC energy correction          :          -0.68794710 Ha         -18.71999318 eV
  | XC potential correction       :           0.88314531 Ha          24.03160660 eV
  | Free-atom electrostatic energy:          -0.34926478 Ha          -9.50397834 eV
  | Hartree energy correction     :          -0.25289788 Ha          -6.88170157 eV
  | vdW energy correction         :           0.00000000 Ha           0.00000000 eV
  | Entropy correction            :           0.00000000 Ha           0.00000000 eV
  | ---------------------------
  | Total energy                  :          -1.16674374 Ha         -31.74871248 eV
  | Total energy, T -> 0          :          -1.16674374 Ha         -31.74871248 eV  <-- do not rely on this value for anything but (periodic) metals
  | Electronic free energy        :          -1.16674374 Ha         -31.74871248 eV

  Derived energy quantities:
  | Kinetic energy                :           1.13206921 Ha          30.80517055 eV
  | Electrostatic energy          :          -1.61086584 Ha         -43.83388985 eV
  | Energy correction for multipole
  | error in Hartree potential    :          -0.00009602 Ha          -0.00261294 eV
  | Sum of eigenvalues per atom                           :         -10.33732299 eV
  | Total energy (T->0) per atom                          :         -15.87435624 eV  <-- do not rely on this value for anything but (periodic) metals
  | Electronic free energy per atom                       :         -15.87435624 eV

  Self-consistency convergence accuracy:
  | Change of charge density      :  0.1078E-04
  | Change of sum of eigenvalues  : -0.2375E-03 eV
  | Change of total energy        :  0.5211E-09 eV

  End self-consistency iteration #     7       :  max(cpu_time)    wall_clock(cpu1)
  | Time for this iteration                    :        0.058 s           0.058 s
  | Charge density update                      :        0.014 s           0.014 s
  | Density mixing                             :        0.004 s           0.004 s
  | Hartree multipole update                   :        0.004 s           0.005 s
  | Hartree multipole summation                :        0.017 s           0.016 s
  | Integration                                :        0.018 s           0.019 s
  | Solution of K.-S. eqns.                    :        0.000 s           0.000 s
  | Total energy evaluation                    :        0.000 s           0.000 s

  Partial memory accounting:
  | Current value for overall tracked memory usage on task 0  :           0.012 MB
  | Peak value for overall tracked memory usage on task 0     :           0.129 MB after allocating gradient_basis_wave
  | Largest tracked array allocation on task 0 so far         :           0.088 MB  when allocating gradient_basis_wave
  Note:  These values currently only include a subset of arrays which are explicitly tracked.
  The "true" memory usage will be greater.
------------------------------------------------------------

------------------------------------------------------------
          Begin self-consistency iteration #    8

  Date     :  20200331, Time     :  212123.415
------------------------------------------------------------
  Evaluating new KS density.
  Integration grid: deviation in total charge (<rho> - N_e) =  -6.661338E-16
  Pulay mixing of updated and previous charge densities.

  Evaluating partitioned Hartree potential by multipole expansion.
  | Analytical far-field extrapolation by fixed multipoles:
  | Hartree multipole sum: apparent total charge =   0.453698E-06
  Summing up the Hartree potential.
  Time summed over all CPUs for potential: real work        0.063 s, elapsed        0.066 s
  | RMS charge density error from multipole expansion :   0.118110E-02

  Integrating Hamiltonian matrix: batch-based integration.
  Time summed over all CPUs for integration: real work        0.070 s, elapsed        0.072 s

  Updating Kohn-Sham eigenvalues and eigenvectors using ELSI and the ELPA eigensolver.
  ELPA settings:
  | ELPA solver          1
  Finished transformation to standard eigenproblem
  | Time :     0.000 s
  Starting ELPA eigensolver
  | Time full => tridiagonal    :     0.000 s
  | Time solve tridiagonal      :     0.000 s
  | Time ev tridiagonal => full :     0.000 s
  Finished solving standard eigenproblem
  | Time :     0.000 s
  Finished back-transformation of eigenvectors
  | Time :     0.000 s

  Obtaining occupation numbers and chemical potential using ELSI.
  | Chemical potential (Fermi level):    -2.93916677eV
  Highest occupied state (VBM) at    -10.33740154 eV
  | Occupation number:      2.00000000

  Lowest unoccupied state (CBM) at     0.50611986 eV
  | Occupation number:      0.00000000

  Overall HOMO-LUMO gap:     10.84352140 eV.

  Total energy components:
  | Sum of eigenvalues            :          -0.75978505 Ha         -20.67480308 eV
  | XC energy correction          :          -0.68794384 Ha         -18.71990434 eV
  | XC potential correction       :           0.88314110 Ha          24.03149210 eV
  | Free-atom electrostatic energy:          -0.34926478 Ha          -9.50397834 eV
  | Hartree energy correction     :          -0.25289117 Ha          -6.88151882 eV
  | vdW energy correction         :           0.00000000 Ha           0.00000000 eV
  | Entropy correction            :           0.00000000 Ha           0.00000000 eV
  | ---------------------------
  | Total energy                  :          -1.16674374 Ha         -31.74871248 eV
  | Total energy, T -> 0          :          -1.16674374 Ha         -31.74871248 eV  <-- do not rely on this value for anything but (periodic) metals
  | Electronic free energy        :          -1.16674374 Ha         -31.74871248 eV

  Derived energy quantities:
  | Kinetic energy                :           1.13205952 Ha          30.80490678 eV
  | Electrostatic energy          :          -1.61085942 Ha         -43.83371493 eV
  | Energy correction for multipole
  | error in Hartree potential    :          -0.00009602 Ha          -0.00261282 eV
  | Sum of eigenvalues per atom                           :         -10.33740154 eV
  | Total energy (T->0) per atom                          :         -15.87435624 eV  <-- do not rely on this value for anything but (periodic) metals
  | Electronic free energy per atom                       :         -15.87435624 eV

  Self-consistency convergence accuracy:
  | Change of charge density      :  0.4191E-05
  | Change of sum of eigenvalues  : -0.1571E-03 eV
  | Change of total energy        : -0.4255E-09 eV

  End self-consistency iteration #     8       :  max(cpu_time)    wall_clock(cpu1)
  | Time for this iteration                    :        0.058 s           0.058 s
  | Charge density update                      :        0.013 s           0.014 s
  | Density mixing                             :        0.005 s           0.005 s
  | Hartree multipole update                   :        0.004 s           0.004 s
  | Hartree multipole summation                :        0.017 s           0.017 s
  | Integration                                :        0.018 s           0.018 s
  | Solution of K.-S. eqns.                    :        0.000 s           0.000 s
  | Total energy evaluation                    :        0.000 s           0.000 s

  Partial memory accounting:
  | Current value for overall tracked memory usage on task 0  :           0.012 MB
  | Peak value for overall tracked memory usage on task 0     :           0.129 MB after allocating gradient_basis_wave
  | Largest tracked array allocation on task 0 so far         :           0.088 MB  when allocating gradient_basis_wave
  Note:  These values currently only include a subset of arrays which are explicitly tracked.
  The "true" memory usage will be greater.
------------------------------------------------------------

------------------------------------------------------------
          Begin self-consistency iteration #    9

  Date     :  20200331, Time     :  212123.473
------------------------------------------------------------
  Evaluating new KS density.
  Integration grid: deviation in total charge (<rho> - N_e) =   3.108624E-15
  Pulay mixing of updated and previous charge densities.

  Evaluating partitioned Hartree potential by multipole expansion.
  | Analytical far-field extrapolation by fixed multipoles:
  | Hartree multipole sum: apparent total charge =   0.453698E-06
  Summing up the Hartree potential.
  Time summed over all CPUs for potential: real work        0.064 s, elapsed        0.067 s
  | RMS charge density error from multipole expansion :   0.118110E-02

  Integrating Hamiltonian matrix: batch-based integration.
  Time summed over all CPUs for integration: real work        0.071 s, elapsed        0.072 s

  Updating Kohn-Sham eigenvalues and eigenvectors using ELSI and the ELPA eigensolver.
  ELPA settings:
  | ELPA solver          1
  Finished transformation to standard eigenproblem
  | Time :     0.000 s
  Starting ELPA eigensolver
  | Time full => tridiagonal    :     0.000 s
  | Time solve tridiagonal      :     0.000 s
  | Time ev tridiagonal => full :     0.000 s
  Finished solving standard eigenproblem
  | Time :     0.000 s
  Finished back-transformation of eigenvectors
  | Time :     0.000 s

  Obtaining occupation numbers and chemical potential using ELSI.
  | Chemical potential (Fermi level):    -2.93916720eV
  Highest occupied state (VBM) at    -10.33740210 eV
  | Occupation number:      2.00000000

  Lowest unoccupied state (CBM) at     0.50611961 eV
  | Occupation number:      0.00000000

  Overall HOMO-LUMO gap:     10.84352171 eV.

  Total energy components:
  | Sum of eigenvalues            :          -0.75978509 Ha         -20.67480421 eV
  | XC energy correction          :          -0.68794382 Ha         -18.71990372 eV
  | XC potential correction       :           0.88314107 Ha          24.03149130 eV
  | Free-atom electrostatic energy:          -0.34926478 Ha          -9.50397834 eV
  | Hartree energy correction     :          -0.25289112 Ha          -6.88151752 eV
  | vdW energy correction         :           0.00000000 Ha           0.00000000 eV
  | Entropy correction            :           0.00000000 Ha           0.00000000 eV
  | ---------------------------
  | Total energy                  :          -1.16674374 Ha         -31.74871248 eV
  | Total energy, T -> 0          :          -1.16674374 Ha         -31.74871248 eV  <-- do not rely on this value for anything but (periodic) metals
  | Electronic free energy        :          -1.16674374 Ha         -31.74871248 eV

  Derived energy quantities:
  | Kinetic energy                :           1.13205945 Ha          30.80490507 eV
  | Electrostatic energy          :          -1.61085938 Ha         -43.83371383 eV
  | Energy correction for multipole
  | error in Hartree potential    :          -0.00009602 Ha          -0.00261281 eV
  | Sum of eigenvalues per atom                           :         -10.33740210 eV
  | Total energy (T->0) per atom                          :         -15.87435624 eV  <-- do not rely on this value for anything but (periodic) metals
  | Electronic free energy per atom                       :         -15.87435624 eV

  Self-consistency convergence accuracy:
  | Change of charge density      :  0.5132E-07
  | Change of sum of eigenvalues  : -0.1121E-05 eV
  | Change of total energy        : -0.3408E-11 eV

  Electronic self-consistency reached - switching on the force computation.

  End self-consistency iteration #     9       :  max(cpu_time)    wall_clock(cpu1)
  | Time for this iteration                    :        0.058 s           0.058 s
  | Charge density & force component update    :        0.014 s           0.014 s
  | Density mixing                             :        0.005 s           0.005 s
  | Hartree multipole update                   :        0.004 s           0.004 s
  | Hartree multipole summation                :        0.017 s           0.017 s
  | Integration                                :        0.018 s           0.018 s
  | Solution of K.-S. eqns.                    :        0.000 s           0.000 s
  | Total energy evaluation                    :        0.000 s           0.000 s

  Partial memory accounting:
  | Current value for overall tracked memory usage on task 0  :           0.012 MB
  | Peak value for overall tracked memory usage on task 0     :           0.129 MB after allocating gradient_basis_wave
  | Largest tracked array allocation on task 0 so far         :           0.088 MB  when allocating gradient_basis_wave
  Note:  These values currently only include a subset of arrays which are explicitly tracked.
  The "true" memory usage will be greater.
------------------------------------------------------------

------------------------------------------------------------
          Begin self-consistency iteration #   10

  Date     :  20200331, Time     :  212123.531
------------------------------------------------------------
  Evaluating new KS density.
  Integration grid: deviation in total charge (<rho> - N_e) =  -6.661338E-16
  Pulay mixing of updated and previous charge densities.

  Evaluating partitioned Hartree potential by multipole expansion.
  | Analytical far-field extrapolation by fixed multipoles:
  | Hartree multipole sum: apparent total charge =   0.453698E-06
  Summing up the Hartree potential.
  Time summed over all CPUs for potential: real work        0.217 s, elapsed        0.228 s
  | RMS charge density error from multipole expansion :   0.118110E-02

  Integrating Hamiltonian matrix: batch-based integration.
  Time summed over all CPUs for integration: real work        0.071 s, elapsed        0.073 s

  Updating Kohn-Sham eigenvalues and eigenvectors using ELSI and the ELPA eigensolver.
  ELPA settings:
  | ELPA solver          1
  Finished transformation to standard eigenproblem
  | Time :     0.000 s
  Starting ELPA eigensolver
  | Time full => tridiagonal    :     0.000 s
  | Time solve tridiagonal      :     0.000 s
  | Time ev tridiagonal => full :     0.000 s
  Finished solving standard eigenproblem
  | Time :     0.000 s
  Finished back-transformation of eigenvectors
  | Time :     0.000 s

  Obtaining occupation numbers and chemical potential using ELSI.
  | Chemical potential (Fermi level):    -2.93916751eV
  Highest occupied state (VBM) at    -10.33740256 eV
  | Occupation number:      2.00000000

  Lowest unoccupied state (CBM) at     0.50611945 eV
  | Occupation number:      0.00000000

  Overall HOMO-LUMO gap:     10.84352200 eV.

  Total energy components:
  | Sum of eigenvalues            :          -0.75978512 Ha         -20.67480511 eV
  | XC energy correction          :          -0.68794380 Ha         -18.71990320 eV
  | XC potential correction       :           0.88314105 Ha          24.03149063 eV
  | Free-atom electrostatic energy:          -0.34926478 Ha          -9.50397834 eV
  | Hartree energy correction     :          -0.25289108 Ha          -6.88151646 eV
  | vdW energy correction         :           0.00000000 Ha           0.00000000 eV
  | Entropy correction            :           0.00000000 Ha           0.00000000 eV
  | ---------------------------
  | Total energy                  :          -1.16674374 Ha         -31.74871248 eV
  | Total energy, T -> 0          :          -1.16674374 Ha         -31.74871248 eV  <-- do not rely on this value for anything but (periodic) metals
  | Electronic free energy        :          -1.16674374 Ha         -31.74871248 eV

  Derived energy quantities:
  | Kinetic energy                :           1.13205939 Ha          30.80490347 eV
  | Electrostatic energy          :          -1.61085934 Ha         -43.83371275 eV
  | Energy correction for multipole
  | error in Hartree potential    :          -0.00009602 Ha          -0.00261281 eV
  | Sum of eigenvalues per atom                           :         -10.33740256 eV
  | Total energy (T->0) per atom                          :         -15.87435624 eV  <-- do not rely on this value for anything but (periodic) metals
  | Electronic free energy per atom                       :         -15.87435624 eV

  atomic forces [eV/Ang]:
  -----------------------
  atom #    1
   Hellmann-Feynman              :  0.152581E-13  0.103123E-13 -0.424038E-02
   Ionic forces                  :  0.000000E+00  0.000000E+00  0.000000E+00
   Multipole                     :  0.209767E-15 -0.287471E-16  0.443364E-01
   Pulay + GGA                   :  0.000000E+00  0.000000E+00  0.000000E+00
   Van der Waals                 :  0.000000E+00  0.000000E+00  0.000000E+00
   ----------------------------------------------------------------
   Total forces(   1)            :  0.154679E-13  0.102836E-13  0.400961E-01
  atom #    2
   Hellmann-Feynman              : -0.477707E-14 -0.151352E-13  0.424038E-02
   Ionic forces                  :  0.000000E+00  0.000000E+00  0.000000E+00
   Multipole                     :  0.335992E-15  0.148788E-15 -0.443364E-01
   Pulay + GGA                   :  0.000000E+00  0.000000E+00  0.000000E+00
   Van der Waals                 :  0.000000E+00  0.000000E+00  0.000000E+00
   ----------------------------------------------------------------
   Total forces(   2)            : -0.444107E-14 -0.149864E-13 -0.400961E-01


  Self-consistency convergence accuracy:
  | Change of charge density      :  0.2384E-07
  | Change of sum of eigenvalues  : -0.9081E-06 eV
  | Change of total energy        : -0.5788E-11 eV
  | Change of forces              :  0.4010E-01 eV/A

  End self-consistency iteration #    10       :  max(cpu_time)    wall_clock(cpu1)
  | Time for this iteration                    :        0.099 s           0.100 s
  | Charge density & force component update    :        0.014 s           0.014 s
  | Density mixing                             :        0.005 s           0.005 s
  | Hartree multipole update                   :        0.004 s           0.005 s
  | Hartree multipole summation                :        0.057 s           0.057 s
  | Integration                                :        0.018 s           0.018 s
  | Solution of K.-S. eqns.                    :        0.000 s           0.000 s
  | Total energy evaluation                    :        0.000 s           0.001 s

  Partial memory accounting:
  | Current value for overall tracked memory usage on task 0  :           0.012 MB
  | Peak value for overall tracked memory usage on task 0     :           0.129 MB after allocating gradient_basis_wave
  | Largest tracked array allocation on task 0 so far         :           0.088 MB  when allocating gradient_basis_wave
  Note:  These values currently only include a subset of arrays which are explicitly tracked.
  The "true" memory usage will be greater.
------------------------------------------------------------

------------------------------------------------------------
          Begin self-consistency iteration #   11

  Date     :  20200331, Time     :  212123.631
------------------------------------------------------------
  Evaluating new KS density and force components.
  Integration grid: deviation in total charge (<rho> - N_e) =  -1.776357E-15
  Pulay mixing of updated and previous charge densities.

  Evaluating partitioned Hartree potential by multipole expansion.
  | Analytical far-field extrapolation by fixed multipoles:
  | Hartree multipole sum: apparent total charge =   0.453698E-06
  Summing up the Hartree potential.
  Time summed over all CPUs for potential: real work        0.212 s, elapsed        0.226 s
  | RMS charge density error from multipole expansion :   0.118110E-02

  Integrating Hamiltonian matrix: batch-based integration.
  Time summed over all CPUs for integration: real work        0.071 s, elapsed        0.074 s

  Updating Kohn-Sham eigenvalues and eigenvectors using ELSI and the ELPA eigensolver.
  ELPA settings:
  | ELPA solver          1
  Finished transformation to standard eigenproblem
  | Time :     0.000 s
  Starting ELPA eigensolver
  | Time full => tridiagonal    :     0.000 s
  | Time solve tridiagonal      :     0.000 s
  | Time ev tridiagonal => full :     0.000 s
  Finished solving standard eigenproblem
  | Time :     0.000 s
  Finished back-transformation of eigenvectors
  | Time :     0.000 s

  Obtaining occupation numbers and chemical potential using ELSI.
  | Chemical potential (Fermi level):    -2.93916750eV
  Highest occupied state (VBM) at    -10.33740254 eV
  | Occupation number:      2.00000000

  Lowest unoccupied state (CBM) at     0.50611945 eV
  | Occupation number:      0.00000000

  Overall HOMO-LUMO gap:     10.84352200 eV.

  Total energy components:
  | Sum of eigenvalues            :          -0.75978512 Ha         -20.67480509 eV
  | XC energy correction          :          -0.68794380 Ha         -18.71990321 eV
  | XC potential correction       :           0.88314105 Ha          24.03149065 eV
  | Free-atom electrostatic energy:          -0.34926478 Ha          -9.50397834 eV
  | Hartree energy correction     :          -0.25289108 Ha          -6.88151649 eV
  | vdW energy correction         :           0.00000000 Ha           0.00000000 eV
  | Entropy correction            :           0.00000000 Ha           0.00000000 eV
  | ---------------------------
  | Total energy                  :          -1.16674374 Ha         -31.74871248 eV
  | Total energy, T -> 0          :          -1.16674374 Ha         -31.74871248 eV  <-- do not rely on this value for anything but (periodic) metals
  | Electronic free energy        :          -1.16674374 Ha         -31.74871248 eV

  Derived energy quantities:
  | Kinetic energy                :           1.13205940 Ha          30.80490351 eV
  | Electrostatic energy          :          -1.61085934 Ha         -43.83371278 eV
  | Energy correction for multipole
  | error in Hartree potential    :          -0.00009602 Ha          -0.00261281 eV
  | Sum of eigenvalues per atom                           :         -10.33740254 eV
  | Total energy (T->0) per atom                          :         -15.87435624 eV  <-- do not rely on this value for anything but (periodic) metals
  | Electronic free energy per atom                       :         -15.87435624 eV

  atomic forces [eV/Ang]:
  -----------------------
  atom #    1
   Hellmann-Feynman              :  0.130182E-13 -0.984701E-14 -0.424035E-02
   Ionic forces                  :  0.000000E+00  0.000000E+00  0.000000E+00
   Multipole                     :  0.947783E-16 -0.314301E-15  0.443364E-01
   Pulay + GGA                   : -0.812863E-14  0.955309E-14 -0.400941E-01
   Van der Waals                 :  0.000000E+00  0.000000E+00  0.000000E+00
   ----------------------------------------------------------------
   Total forces(   1)            :  0.498437E-14 -0.608220E-15  0.202431E-05
  atom #    2
   Hellmann-Feynman              : -0.181123E-13  0.163637E-13  0.424035E-02
   Ionic forces                  :  0.000000E+00  0.000000E+00  0.000000E+00
   Multipole                     : -0.910324E-17  0.257504E-15 -0.443364E-01
   Pulay + GGA                   :  0.154851E-13 -0.137819E-13  0.400941E-01
   Van der Waals                 :  0.000000E+00  0.000000E+00  0.000000E+00
   ----------------------------------------------------------------
   Total forces(   2)            : -0.263630E-14  0.283935E-14 -0.202431E-05


  Self-consistency convergence accuracy:
  | Change of charge density      :  0.6126E-09
  | Change of sum of eigenvalues  :  0.2531E-07 eV
  | Change of total energy        :  0.9667E-13 eV
  | Change of forces              :  0.3088E-07 eV/A

  Writing Kohn-Sham eigenvalues.

  State    Occupation    Eigenvalue [Ha]    Eigenvalue [eV]
      1       2.00000          -0.379893          -10.33740
      2       0.00000           0.018600            0.50612
      3       0.00000           0.046210            1.25743
      4       0.00000           0.163868            4.45907

  Highest occupied state (VBM) at    -10.33740254 eV
  | Occupation number:      2.00000000

  Lowest unoccupied state (CBM) at     0.50611945 eV
  | Occupation number:      0.00000000

  Overall HOMO-LUMO gap:     10.84352200 eV.

  Self-consistency cycle converged.

  End self-consistency iteration #    11       :  max(cpu_time)    wall_clock(cpu1)
  | Time for this iteration                    :        0.146 s           0.146 s
  | Charge density & force component update    :        0.061 s           0.061 s
  | Density mixing                             :        0.005 s           0.005 s
  | Hartree multipole update                   :        0.004 s           0.005 s
  | Hartree multipole summation                :        0.057 s           0.056 s
  | Integration                                :        0.019 s           0.019 s
  | Solution of K.-S. eqns.                    :        0.000 s           0.000 s
  | Total energy evaluation                    :        0.000 s           0.000 s

  Partial memory accounting:
  | Current value for overall tracked memory usage on task 0  :           0.012 MB
  | Peak value for overall tracked memory usage on task 0     :           0.334 MB after allocating hessian_basis_wave
  | Largest tracked array allocation on task 0 so far         :           0.176 MB  when allocating hessian_basis_wave
  Note:  These values currently only include a subset of arrays which are explicitly tracked.
  The "true" memory usage will be greater.
------------------------------------------------------------
  |------------------------------------------
  | Final ELSI Output
  |------------------------------------------
  | Number of basis functions :           30
  | Number of electrons       :          2.0
  | Number of spins           :            1
  | Number of k-points        :            1
  | Number of states          :            4
  | Solver                    :         ELPA
  | Parallel mode             :   MULTI_PROC
  | Matrix format             :  BLACS_DENSE
  | Matrix sparsity           :        0.693
  |------------------------------------------
  | ELSI Project (c)  elsi-interchange.org
  |------------------------------------------
  Obtaining max. number of non-zero basis functions in each batch .
  Evaluating KS electron density on previously omitted grid points.
  Evaluating non-empirical van der Waals correction (Tkatchenko/Scheffler 2009).
  Performing Hirshfeld analysis of fragment charges and moments.
  ----------------------------------------------------------------------
  | Atom     1: H
  |   Hirshfeld charge        :     -0.00000044
  |   Free atom volume        :     10.31539447
  |   Hirshfeld volume        :      5.36052831
  |   Hirshfeld dipole vector :      0.00000000       0.00000000      -0.08125149
  |   Hirshfeld dipole moment :      0.08125149
  |   Hirshfeld second moments:      0.11879145       0.00000000      -0.00000000
  |                                  0.00000000       0.11879145      -0.00000000
  |                                 -0.00000000      -0.00000000       0.11857780
  ----------------------------------------------------------------------
  | Atom     2: H
  |   Hirshfeld charge        :     -0.00000044
  |   Free atom volume        :     10.31539447
  |   Hirshfeld volume        :      5.36052831
  |   Hirshfeld dipole vector :     -0.00000000      -0.00000000       0.08125149
  |   Hirshfeld dipole moment :      0.08125149
  |   Hirshfeld second moments:      0.11879145      -0.00000000      -0.00000000
  |                                 -0.00000000       0.11879145      -0.00000000
  |                                 -0.00000000      -0.00000000       0.11857780
  ----------------------------------------------------------------------


  Total energy components:
  | Sum of eigenvalues            :          -0.75978512 Ha         -20.67480509 eV
  | XC energy correction          :          -0.68794380 Ha         -18.71990321 eV
  | XC potential correction       :           0.88314105 Ha          24.03149065 eV
  | Free-atom electrostatic energy:          -0.34926478 Ha          -9.50397834 eV
  | Hartree energy correction     :          -0.25289108 Ha          -6.88151649 eV
  | vdW energy correction         :          -0.00000019 Ha          -0.00000515 eV
  | Entropy correction            :           0.00000000 Ha           0.00000000 eV
  | ---------------------------
  | Total energy                  :          -1.16674393 Ha         -31.74871763 eV
  | Total energy, T -> 0          :          -1.16674393 Ha         -31.74871763 eV  <-- do not rely on this value for anything but (periodic) metals
  | Electronic free energy        :          -1.16674393 Ha         -31.74871763 eV

  Derived energy quantities:
  | Kinetic energy                :           1.13205940 Ha          30.80490351 eV
  | Electrostatic energy          :          -1.61085934 Ha         -43.83371278 eV
  | Energy correction for multipole
  | error in Hartree potential    :          -0.00009602 Ha          -0.00261281 eV
  | Sum of eigenvalues per atom                           :         -10.33740254 eV
  | Total energy (T->0) per atom                          :         -15.87435882 eV  <-- do not rely on this value for anything but (periodic) metals
  | Electronic free energy per atom                       :         -15.87435882 eV

  atomic forces [eV/Ang]:
  -----------------------
  atom #    1
   Hellmann-Feynman              :  0.130182E-13 -0.984701E-14 -0.424035E-02
   Ionic forces                  :  0.000000E+00  0.000000E+00  0.000000E+00
   Multipole                     :  0.947783E-16 -0.314301E-15  0.443364E-01
   Pulay + GGA                   : -0.812863E-14  0.955309E-14 -0.400941E-01
   Van der Waals                 :  0.000000E+00  0.000000E+00 -0.347231E-06
   ----------------------------------------------------------------
   Total forces(   1)            :  0.498437E-14 -0.608220E-15  0.167708E-05
  atom #    2
   Hellmann-Feynman              : -0.181123E-13  0.163637E-13  0.424035E-02
   Ionic forces                  :  0.000000E+00  0.000000E+00  0.000000E+00
   Multipole                     : -0.910324E-17  0.257504E-15 -0.443364E-01
   Pulay + GGA                   :  0.154851E-13 -0.137819E-13  0.400941E-01
   Van der Waals                 :  0.000000E+00  0.000000E+00  0.347231E-06
   ----------------------------------------------------------------
   Total forces(   2)            : -0.263630E-14  0.283935E-14 -0.167708E-05

  Timings for VdW correction (Tkatchenko-Scheffler 2009 or later):
  | CPU time:        0.004 s, Wall clock time:        0.006 s.
  Removing unitary transformations (pure translations, rotations) from forces on atoms.
  Atomic forces before filtering:
  | Net force on center of mass :   0.234807E-14  0.223113E-14  0.470100E-13 eV/A
  | Net torque on center of mass:  -0.129304E-14 -0.285819E-14  0.000000E+00 eV
  Atomic forces after filtering:
  | Net force on center of mass :   0.316913E-30  0.316913E-30  0.000000E+00 eV/A
  | Net torque on center of mass:   0.237721E-30  0.475443E-30  0.000000E+00 eV

  Energy and forces in a compact form:
  | Total energy uncorrected      :         -0.317487176322800E+02 eV
  | Total energy corrected        :         -0.317487176322800E+02 eV  <-- do not rely on this value for anything but (periodic) metals
  | Electronic free energy        :         -0.317487176322800E+02 eV
  Total atomic forces (unitary forces cleaned) [eV/Ang]:
  |   1         -0.475369408173429E-30          0.475369408173429E-30          0.167708344310412E-05
  |   2          0.792282346955716E-30         -0.158456469391143E-30         -0.167708344310412E-05

  ------------------------------------ 
  Start decomposition of the XC Energy 
  ------------------------------------ 
  X and C from original XC functional choice 
  Hartree-Fock Energy :          0.000000000 Ha              0.000000000 eV
  X Energy            :         -0.645067494 Ha            -17.553179596 eV
  C Energy            :         -0.042876305 Ha             -1.166723615 eV
  Total XC Energy     :         -0.687943798 Ha            -18.719903210 eV
  ------------------------------------ 
  LDA X and C from self-consistent density 
  X Energy LDA        :         -0.564015369 Ha            -15.347639078 eV
  C Energy LDA        :         -0.094315012 Ha             -2.566442057 eV
  ------------------------------------ 
  End decomposition of the XC Energy 
  ------------------------------------ 

------------------------------------------------------------
  Relaxation / MD: End force evaluation.       :  max(cpu_time)    wall_clock(cpu1)
  | Time for this force evaluation             :        0.811 s           0.830 s

------------------------------------------------------------
  Geometry optimization: Attempting to predict improved coordinates.

  Removing unitary transformations (pure translations, rotations) from forces on atoms.
  Atomic forces before filtering:
  | Net force on center of mass :   0.316913E-30  0.316913E-30  0.000000E+00 eV/A
  | Net torque on center of mass:   0.237721E-30  0.475443E-30  0.000000E+00 eV
  Atomic forces after filtering:
  | Net force on center of mass :   0.703688E-46  0.703688E-46  0.000000E+00 eV/A
  | Net torque on center of mass:  -0.527848E-46 -0.105570E-45  0.000000E+00 eV
  Net remaining forces (excluding translations, rotations) in present geometry:
  Maximum force component is  0.167708E-05 eV/A.
  Present geometry is converged.

------------------------------------------------------------
  Final atomic structure:
                         x [A]             y [A]             z [A]
            atom         0.00000000        0.00000000        0.22494197  H
            atom         0.00000000        0.00000000        0.97505803  H
------------------------------------------------------------

------------------------------------------------------------------------------
  Final output of selected total energy values:

  The following output summarizes some interesting total energy values
  at the end of a run (AFTER all relaxation, molecular dynamics, etc.).

  | Total energy of the DFT / Hartree-Fock s.c.f. calculation      :            -31.748717632 eV
  | Final zero-broadening corrected energy (caution - metals only) :            -31.748717632 eV
  | For reference only, the value of 1 Hartree used in FHI-aims is :             27.211384500 eV

  Before relying on these values, please be sure to understand exactly which
  total energy value is referred to by a given number. Different objects may
  all carry the same name 'total energy'. Definitions:

  Total energy of the DFT / Hartree-Fock s.c.f. calculation:
  | Note that this energy does not include ANY quantities calculated after the
  | s.c.f. cycle, in particular not ANY RPA, MP2, etc. many-body perturbation terms.

  Final zero-broadening corrected energy:
  | For metallic systems only, a broadening of the occupation numbers at the Fermi
  | level can be extrapolated back to zero broadening by an electron-gas inspired
  | formula. For all systems that are not real metals, this value can be
  | meaningless and should be avoided.

------------------------------------------------------------------------------
  Methods described in the following list of references were used in this FHI-aims run.
  If you publish the results, please make sure to cite these reference if they apply.
  FHI-aims is an academic code, and for our developers (often, Ph.D. students
  and postdocs), scientific credit in the community is essential.
  Thank you for helping us!

  For any use of FHI-aims, please cite:

    Volker Blum, Ralf Gehrke, Felix Hanke, Paula Havu, Ville Havu,
    Xinguo Ren, Karsten Reuter, and Matthias Scheffler
    'Ab initio molecular simulations with numeric atom-centered orbitals'
    Computer Physics Communications 180, 2175-2196 (2009)
    http://dx.doi.org/10.1016/j.cpc.2009.06.022


  The scalable eigensolver library ELPA was used in your run.
  ELPA is essential especially for large systems on hundreds or thousands of CPUs.
  For ELPA, please cite:

    Andreas Marek, Volker Blum, Rainer Johanni, Ville Havu, Bruno Lang,
    Thomas Auckenthaler, Alexander Heinecke, Hans-Joachim Bungartz, and Hermann Lederer,
    'The ELPA Library - Scalable Parallel Eigenvalue Solutions
    for Electronic Structure Theory and Computational Science'
    The Journal of Physics: Condensed Matter 26, 213201 (2014).
    http://dx.doi.org/10.1088/0953-8984/26/21/213201


  The ELSI infrastructure was used in your run to solve the Kohn-Sham electronic structure.
  Please check out http://elsi-interchange.org to learn more.
  If scalability is important for your project, please acknowledge ELSI by citing:

    V. W-z. Yu, F. Corsetti, A. Garcia, W. P. Huhn, M. Jacquelin, W. Jia,
    B. Lange, L. Lin, J. Lu, W. Mi, A. Seifitokaldani, A. Vazquez-Mayagoitia,
    C. Yang, H. Yang, and V. Blum
    'ELSI: A unified software interface for Kohn-Sham electronic structure solvers'
    Computer Physics Communications 222, 267-285 (2018).
    http://dx.doi.org/10.1016/j.cpc.2017.09.007


  For the real-space grid partitioning and parallelization used in this calculation, please cite:

    Ville Havu, Volker Blum, Paula Havu, and Matthias Scheffler,
    'Efficient O(N) integration for all-electron electronic structure calculation'
    'using numerically tabulated basis functions'
    Journal of Computational Physics 228, 8367-8379 (2009).
    http://dx.doi.org/10.1016/j.jcp.2009.08.008

  Of course, there are many other important community references, e.g., those cited in the
  above references. Our list is limited to references that describe implementations in the
  FHI-aims code. The reason is purely practical (length of this list) - please credit others as well.

------------------------------------------------------------
          Leaving FHI-aims.
          Date     :  20200331, Time     :  212123.789

          Computational steps:
          | Number of self-consistency cycles          :           11
          | Number of SCF (re)initializations          :            1
          | Number of relaxation steps                 :            0

          Detailed time accounting                     :  max(cpu_time)    wall_clock(cpu1)
          | Total time                                 :        0.949 s           1.395 s
          | Preparation time                           :        0.102 s           0.103 s
          | Boundary condition initalization           :        0.000 s           0.001 s
          | Grid partitioning                          :        0.012 s           0.014 s
          | Preloading free-atom quantities on grid    :        0.003 s           0.003 s
          | Free-atom superposition energy             :        0.003 s           0.004 s
          | Total time for integrations                :        0.225 s           0.227 s
          | Total time for solution of K.-S. equations :        0.007 s           0.008 s
          | Total time for EV reorthonormalization     :        0.000 s           0.000 s
          | Total time for density & force components  :        0.199 s           0.199 s
          | Total time for mixing                      :        0.036 s           0.037 s
          | Total time for Hartree multipole update    :        0.048 s           0.050 s
          | Total time for Hartree multipole sum       :        0.265 s           0.263 s
          | Total time for total energy evaluation     :        0.001 s           0.001 s
          | Total time for scaled ZORA corrections     :        0.000 s           0.000 s
          | Total time for vdW correction              :        0.004 s           0.006 s

          Partial memory accounting:
          | Residual value for overall tracked memory usage across tasks :           0.000 MB (should be 0.000 MB)
          | Peak values for overall tracked memory usage (after allocating hessian_basis_wave):
          |   Minimum:        0.333 MB (on task 4)
          |   Maximum:        0.334 MB (on task 1)
          |   Average:        0.333 MB
          | Largest tracked array allocation (hessian_basis_wave):
          |   Minimum:        0.176 MB (on task 1)
          |   Maximum:        0.176 MB (on task 1)
          |   Average:        0.176 MB
          Note:  These values currently only include a subset of arrays which are explicitly tracked.
          The "true" memory usage will be greater.

          Have a nice day.
------------------------------------------------------------
