  MPI-parallelism will be employed.
------------------------------------------------------------
          Invoking FHI-aims ...
          Version 171221_1
          Compiled on 2019/05/02 at 01:00:43 on host tiagopc.

          When using FHI-aims, please cite the following reference:

          Volker Blum, Ralf Gehrke, Felix Hanke, Paula Havu,
          Ville Havu, Xinguo Ren, Karsten Reuter, and Matthias Scheffler,
          'Ab Initio Molecular Simulations with Numeric Atom-Centered Orbitals',
          Computer Physics Communications 180, 2175-2196 (2009)

          For any questions about FHI-aims, please visit the aimsclub website
          with its forums and wiki. Contributions to both the forums and the
          wiki are warmly encouraged - they are for you, and everyone is welcome there.

------------------------------------------------------------



  Date     :  20200408, Time     :  082012.945
  Time zero on CPU 1             :   0.368050000000000E-01  s.
  Internal wall clock time zero  :           355566012.945  s.

  FHI-aims created a unique identifier for this run for later identification
  aims_uuid : 1A694498-43EB-4332-ADA7-6286A0169703

  Using        4 parallel tasks.
  Task        0 on host tiagopc reporting.
  Task        1 on host tiagopc reporting.
  Task        2 on host tiagopc reporting.
  Task        3 on host tiagopc reporting.

  Performing system and environment tests:
  *** Environment variable OMP_NUM_THREADS is not set
  *** For performance reasons you might want to set it to 1
  | Stacksize not measured: no C compiler
  | Checking for scalapack...
  | Testing pdtran()...
  | All pdtran() tests passed.

  Obtaining array dimensions for all initial allocations:
  
  -----------------------------------------------------------------------
  Parsing control.in (first pass over file, find array dimensions only).
  The contents of control.in will be repeated verbatim below
  unless switched off by setting 'verbatim_writeout .false.' .
  in the first line of control.in .
  -----------------------------------------------------------------------
  
  #
  xc pbe
  vdw_correction_hirshfeld
  relativistic atomic_zora scalar
  #
  occupation_type gaussian 0.01
  n_max_pulay 8
  charge_mix_param 0.2
  sc_accuracy_rho 1e-6
  sc_accuracy_eev 1e-4
  #
  relax_geometry bfgs 5e-4
  #
  sc_accuracy_forces 1e-5
  sc_accuracy_stress 1e-5
  compute_forces .true.
  
  ################################################################################
  #
  #  FHI-aims code project
  # Volker Blum, Fritz Haber Institute Berlin, 2009
  #
  #  Suggested "tight" defaults for O atom (to be pasted into control.in file)
  #
  ################################################################################
    species        O
  #     global species definitions
      nucleus             8
      mass                15.9994
  #
      l_hartree           6
  #
      cut_pot             4.0  2.0  1.0
      basis_dep_cutoff    1e-4
  #
      radial_base         36 7.0
      radial_multiplier   2
       angular_grids specified
        division   0.1817   50
        division   0.3417  110
        division   0.4949  194
        division   0.6251  302
        division   0.8014  434
  #      division   0.8507  590
  #      division   0.8762  770
  #      division   0.9023  974
  #      division   1.2339 1202
  #      outer_grid 974
        outer_grid  434
  ################################################################################
  #
  #  Definition of "minimal" basis
  #
  ################################################################################
  #     valence basis states
      valence      2  s   2.
      valence      2  p   4.
  #     ion occupancy
      ion_occ      2  s   1.
      ion_occ      2  p   3.
  ################################################################################
  #
  #  Suggested additional basis functions. For production calculations,
  #  uncomment them one after another (the most important basis functions are
  #  listed first).
  #
  #  Constructed for dimers: 1.0 A, 1.208 A, 1.5 A, 2.0 A, 3.0 A
  #
  ################################################################################
  #  "First tier" - improvements: -699.05 meV to -159.38 meV
       hydro 2 p 1.8
       hydro 3 d 7.6
       hydro 3 s 6.4
  #  "Second tier" - improvements: -49.91 meV to -5.39 meV
       hydro 4 f 11.6
       hydro 3 p 6.2
       hydro 3 d 5.6
       hydro 5 g 17.6
       hydro 1 s 0.75
  #  "Third tier" - improvements: -2.83 meV to -0.50 meV
  #     ionic 2 p auto
  #     hydro 4 f 10.8
  #     hydro 4 d 4.7
  #     hydro 2 s 6.8
  #  "Fourth tier" - improvements: -0.40 meV to -0.12 meV
  #     hydro 3 p 5
  #     hydro 3 s 3.3
  #     hydro 5 g 15.6
  #     hydro 4 f 17.6
  #     hydro 4 d 14
  # Further basis functions - -0.08 meV and below
  #     hydro 3 s 2.1
  #     hydro 4 d 11.6
  #     hydro 3 p 16
  #     hydro 2 s 17.2
  ################################################################################
  #
  # For methods that use the localized form of the "resolution of identity" for
  # the two-electron Coulomb operator (RI_method LVL), particularly Hartree-Fock and
  # hybrid density functional calculations, the highest accuracy can be obtained by
  # uncommenting the line beginning with "for_aux"  below, thus adding an extra g radial
  # function to the construction of the product basis set for the expansion.
  # See Ref. New J. Phys. 17, 093020 (2015) for more information, particularly Figs. 1 and 6.
  #
  ################################################################################
  #
  # for_aux hydro 5 g 6.0
  
  -----------------------------------------------------------------------
  Completed first pass over input file control.in .
  -----------------------------------------------------------------------
  
  
  -----------------------------------------------------------------------
  Parsing geometry.in (first pass over file, find array dimensions only).
  The contents of geometry.in will be repeated verbatim below
  unless switched off by setting 'verbatim_writeout .false.' .
  in the first line of geometry.in .
  -----------------------------------------------------------------------
  
  atom      -0.00000000      0.00000000      0.00000000 O
  atom      -0.00000000      0.00000000      1.27800000 O
  
  -----------------------------------------------------------------------
  Completed first pass over input file geometry.in .
  -----------------------------------------------------------------------
  

  Basic array size parameters:
  | Number of species                 :        1
  | Number of atoms                   :        2
  | Max. basis fn. angular momentum   :        4
  | Max. atomic/ionic basis occupied n:        2
  | Max. number of basis fn. types    :        2
  | Max. radial fns per species/type  :        8
  | Max. logarithmic grid size        :     1301
  | Max. radial integration grid size :       73
  | Max. angular integration grid size:      434
  | Max. angular grid division number :        8
  | Radial grid for Hartree potential :     1301
  | Number of spin channels           :        1

------------------------------------------------------------
          Reading file control.in.
------------------------------------------------------------
  XC: Using PBE gradient-corrected functionals.
  Scalar relativistic treatment of kinetic energy: on-site free-atom approximation to ZORA.
  Occupation type: Gaussian broadening, width =   0.100000E-01 eV.
  Pulay mixing - number of memorized iterations:    8
  Charge density mixing - mixing parameter:     0.2000
  Convergence accuracy of self-consistent charge density:  0.1000E-05
  Convergence accuracy of sum of eigenvalues:  0.1000E-03
  Geometry relaxation: Modified BFGS - TRM (trust radius method, i.e., trusted quadratic extrapolation).
  Convergence accuracy for geometry relaxation: Maximum force <   0.500000E-03 eV/A.
  Convergence accuracy of forces:  0.1000E-04
  Convergence accuracy of analytical stress:  0.1000E-04
  Forces will be computed.
 
  Reading configuration options for species O                   .
  | Found nuclear charge :   8.0000
  | Found atomic mass :    15.9994000000000      amu
  | Found l_max for Hartree potential  :   6
  | Found cutoff potl. onset [A], width [A], scale factor :    4.00000    2.00000    1.00000
  | Threshold for basis-dependent cutoff potential is   0.100000E-03
  | Found data for basic radial integration grid :    36 points, outermost radius =    7.000 A
  | Found multiplier for basic radial grid :   2
  | Found angular grid specification: user-specified.
  | Specified grid contains     6 separate shells.
  | Check grid settings after all constraints further below.
  | Found free-atom valence shell :  2 s   2.000
  | Found free-atom valence shell :  2 p   4.000
  | No ionic wave fns used. Skipping ion_occ.
  | No ionic wave fns used. Skipping ion_occ.
  | Found hydrogenic basis function :  2 p   1.800
  | Found hydrogenic basis function :  3 d   7.600
  | Found hydrogenic basis function :  3 s   6.400
  | Found hydrogenic basis function :  4 f  11.600
  | Found hydrogenic basis function :  3 p   6.200
  | Found hydrogenic basis function :  3 d   5.600
  | Found hydrogenic basis function :  5 g  17.600
  | Found hydrogenic basis function :  1 s   0.750
  Species O                   : Missing cutoff potential type.
  Defaulting to exp(1/x)/(1-x)^2 type cutoff potential.
  Species O : No 'logarithmic' tag. Using default grid for free atom:
  | Default logarithmic grid data [bohr] : 0.1000E-03 0.1000E+03 0.1012E+01
  Species O : On-site basis accuracy parameter (for Gram-Schmidt orthonormalisation) not specified.
  Using default value basis_acc =  0.1000000E-03.
  Species O                   : Using default innermost maximum threshold i_radial=  2 for radial functions.
  Species O                   : Default cutoff onset for free atom density etc. : 0.40000000E+01 AA.
  Species O                   : Basic radial grid will be enhanced according to radial_multiplier =   2, to contain    73 grid points.
 
  Finished reading input file 'control.in'. Consistency checks are next.
 
  MPI_IN_PLACE appears to work with this MPI implementation.
  | Keeping use_mpi_in_place .true. (see manual).
  Target number of points in a grid batch is not set. Defaulting to  100
  Method for grid partitioning is not set. Defaulting to parallel hash+maxmin partitioning.
  Batch size limit is not set. Defaulting to    200
  By default, will store active basis functions for each batch.
  If in need of memory, prune_basis_once .false. can be used to disable this option.
  communication_type for Hartree potential was not specified.
  Defaulting to calc_hartree .
  Defaulting to Pulay charge density mixer.
  Pulay mixer: Number of initial linear mixing iterations not set.
  Defaulting to    0 iterations.
  Work space size for distributed Hartree potential not set.
  Defaulting to   0.200000E+03 MB.
  Algorithm-dependent basis array size parameters:
  | n_max_pulay                         :        8
  Maximum number of self-consistency iterations not provided.
  Presetting  1000 iterations.
  Presetting      1001 iterations before the initial mixing cycle
  is restarted anyway using the sc_init_iter criterion / keyword.
  Presetting a factor      1.000 between actual scf density residual
  and density convergence criterion sc_accuracy_rho below which sc_init_iter
  takes no effect.
  No maximum number of relaxation steps, defaulting to     1000
  Default initial Hessian is Lindh matrix (thres = 15.00) plus  0.200000E+01 eV/A^2 times unity.
  No maximum energy tolerance for TRM/BFGS moves, defaulting to   0.200000E-03
  No harmonic length scale. Defaulting to   0.250000E-01 A.
  No trust radius initializer. Defaulting to   0.200000E+00 A.
  Handling of forces: Unphysical translation and rotation will be removed from forces.
  No accuracy limit for integral partition fn. given. Defaulting to  0.1000E-14.
  No threshold value for u(r) in integrations given. Defaulting to  0.1000E-05.
  No accuracy for occupation numbers given. Defaulting to  0.1000E-12.
  No threshold value for occupation numbers given. Defaulting to  0.0000E+00.
  No accuracy for fermi level given. Defaulting to  0.1000E-19.
  Maximum # of iterations to find E_F not set. Defaulting to  200.
  Preferred method for the eigenvalue solver ('KS_method') not specified in 'control.in'.
  Calling BLACS routine to test compilation state
  Since ScaLAPACK support is enabled, defaulting to 'elsi'.
  Will not use alltoall communication since running on < 1024 CPUs.
  Threshold for basis singularities not set.
  Default threshold for basis singularities:  0.1000E-04
  partition_type (choice of integration weights) for integrals was not specified.
  | Using a version of the partition function of Stratmann and coworkers ('stratmann_smoother').
  | At each grid point, the set of atoms used to build the partition table is smoothly restricted to
  | only those atoms whose free-atom density would be non-zero at that grid point.
  Partitioning for Hartree potential was not defined. Using partition_type for integrals.
  | Adjusted default value of keyword multip_moments_threshold to:       0.10000000E-11
  | This value may affect high angular momentum components of the Hartree potential in periodic systems.
  Spin handling was not defined in control.in. Defaulting to unpolarized case.
  No q(lm)/r^(l+1) cutoff set for long-range Hartree potential.
  | Using default value of  0.100000E-09 .
  | Verify using the multipole_threshold keyword.
  Defaulting to new monopole extrapolation.
  Density update method: automatic selection selected.
  Geometry relaxation: A file "geometry.in.next_step" is written out by default after each step.
  | This file contains the geometry of the current relaxation step as well as
  | the current Hessian matrix needed to restart the relaxation algorithm.
  | If you do not want part or all of this information, use the keywords
  | "write_restart_geometry" or "hessian_to_restart_geometry" to switch the output off.
------------------------------------------------------------


------------------------------------------------------------
          Reading geometry description geometry.in.
------------------------------------------------------------
  Input structure read successfully.
  The structure contains        2 atoms,  and a total of         16.000 electrons.

  Input geometry:
  | No unit cell requested.
  | Atomic structure:
  |       Atom                x [A]            y [A]            z [A]
  |    1: Species O             0.00000000        0.00000000        0.00000000
  |    2: Species O             0.00000000        0.00000000        1.27800000
  |

  | The smallest distance between any two atoms is         1.27800000 AA.
  |
  | The first atom of this pair is atom number                      1 .
  | The second atom of this pair is atom number                     2 .

  Number of empty states per atom not set in control.in - providing a guess from actual geometry.
  | Total number of empty states used during s.c.f. cycle:        6
  If you use a very high smearing, use empty_states (per atom!) in control.in to increase this value.

  Structure-dependent array size parameters: 
  | Maximum number of distinct radial functions  :       11
  | Maximum number of basis functions            :       78
  | Number of Kohn-Sham states (occupied + empty):       14
------------------------------------------------------------

------------------------------------------------------------
          Preparing all fixed parts of the calculation.
------------------------------------------------------------
  Determining machine precision:
    2.225073858507201E-308
  Setting up grids for atomic and cluster calculations.

  Creating wave function, potential, and density for free atoms.

  Species: O

  List of occupied orbitals and eigenvalues:
    n    l              occ      energy [Ha]    energy [eV]
    1    0           2.0000       -18.927378      -515.0401
    2    0           2.0000        -0.880539       -23.9607
    2    1           4.0000        -0.331811        -9.0290

  Creating fixed part of basis set: Ionic, confined, hydrogenic.
 
  O                    hydrogenic:
 
  List of hydrogenic basis orbitals: 
    n    l      effective z      eigenvalue [eV]  inner max. [A]     outer max. [A]     outer radius [A]   
    2    1         1.800000       -11.0118           1.178562           1.178562           5.432602
    3    2         7.600000       -87.3182           0.624125           0.624125           3.541477
    3    0         6.400000       -61.9209           0.061167           1.081902           4.306578
    4    3        11.600000      -114.4238           0.731631           0.731631           3.585037
    3    1         6.200000       -58.1113           0.255680           1.030270           4.306578
    3    2         5.600000       -47.4081           0.847233           0.847233           4.413171
    5    4        17.600000      -168.5799           0.749740           0.749740           3.372465
    1    0         0.750000        -7.6499           0.705284           0.705284           5.366593
 

  Adding cutoff potential to free-atom effective potential.
  Creating atomic-like basis functions for current effective potential.

  Species O                   :

  List of atomic basis orbitals and eigenvalues:
    n    l      energy [Ha]    energy [eV]    outer radius [A]
    1    0       -18.927378      -515.0401       1.415765
    2    0        -0.880539       -23.9607       5.048385
    2    1        -0.331811        -9.0290       5.301386

  Assembling full basis from fixed parts.
  | Species O :   atomic orbital   1 s accepted.
  | Species O :    hydro orbital   3 s accepted.
  | Species O :   atomic orbital   2 s accepted.
  | Species O :    hydro orbital   1 s accepted.
  | Species O :    hydro orbital   3 p accepted.
  | Species O :   atomic orbital   2 p accepted.
  | Species O :    hydro orbital   2 p accepted.
  | Species O :    hydro orbital   3 d accepted.
  | Species O :    hydro orbital   3 d accepted.
  | Species O :    hydro orbital   4 f accepted.
  | Species O :    hydro orbital   5 g accepted.
 
  Basis size parameters after reduction:
  | Total number of radial functions:       11
  | Total number of basis functions :       78
 
  Per-task memory consumption for arrays in subroutine allocate_ext:
  |           3.665932MB.
  Testing on-site integration grid accuracy.
  |  Species  Function  <phi|h_atom|phi> (log., in eV)  <phi|h_atom|phi> (rad., in eV)
           1        1               -515.0401491148               -515.0401445497
           1        2                 15.1629302771                 15.1629233102
           1        3                -21.6127103295                -21.6127145449
           1        4                 14.4001435709                 14.4001765990
           1        5                 20.8862585187                 20.8862589491
           1        6                 -2.4803658578                 -2.4803665016
           1        7                 13.8586387760                 13.8586021622
           1        8                 45.8331828879                 45.8331828941
           1        9                 52.1851961049                 52.1851977023
           1       10                 85.4133898762                 85.4133899074
           1       11                142.1023296234                142.1023296272

  Preparing densities etc. for the partition functions (integrals / Hartree potential).

  Preparations completed.
  max(cpu_time)          :      0.117 s.
  Wall clock time (cpu1) :      0.122 s.
------------------------------------------------------------

------------------------------------------------------------
          Begin self-consistency loop: Initialization.

          Date     :  20200408, Time     :  082013.505
------------------------------------------------------------

  Initializing index lists of integration centers etc. from given atomic structure:
  | Number of centers in hartree potential         :         2
  | Number of centers in hartree multipole         :         2
  | Number of centers in electron density summation:         2
  | Number of centers in basis integrals           :         2
  | Number of centers in integrals                 :         2
  | Number of centers in hamiltonian               :         2
  Initializing relaxation algorithms.
  * Using 4 tasks for Scalapack Eigenvalue solver.
  Detailed listing of tasks and assigned k-points:
  (for non-periodic systems, the "k-point" denotes an internal label only)
   Task     0 k-point     1 on tiagopc
   Task     1 k-point     1 on tiagopc
   Task     2 k-point     1 on tiagopc
   Task     3 k-point     1 on tiagopc
  Tasks:     4 split into      2 X      2 BLACS grid
  Calculating block size based on n_basis =           78  max_nprow =            2  max_npcol =            2
  ScaLAPACK block size set to:           16
  Allocating        0.017 MB for ovlp
  Allocating        0.017 MB for ham
  Allocating        0.017 MB for eigenvec
  Required Scalapack workspace - INTEGER:            1  REAL:             1
  Partitioning the integration grid into batches with parallel hashing+maxmin method.
  | Number of batches:      488
  | Maximal batch size:     169
  | Minimal batch size:      71
  | Average batch size:      82.533
  | Standard deviation of batch sizes:      17.564

  Integration load balanced across     4 MPI tasks.
  Work distribution over tasks is as follows:
  Task     0 has      10021 integration points.
  Task     1 has      10014 integration points.
  Task     2 has      10084 integration points.
  Task     3 has      10157 integration points.
  Initializing partition tables, free-atom densities, potentials, etc. across the integration grid (initialize_grid_storage).
  | initialize_grid_storage: Actual outermost partition radius vs. multipole_radius_free
  | (-- VB: in principle, multipole_radius_free should be larger, hence this output)
  | Species        1: Confinement radius =              6.000000000000000 AA, multipole_radius_free =              6.064445521808699 AA.
  | Species        1: outer_partition_radius set to              6.064445521808699 AA .
  | Original list of interatomic distances with           2 x          2 entries is created.
  | Net number of integration points:    40276
  | of which are non-zero points    :    38134
  Renormalizing the initial density to the exact electron count on the 3D integration grid.
  | Initial density: Formal number of electrons (from input files) :      16.0000000000
  | Integrated number of electrons on 3D grid     :      16.0000001104
  | Charge integration error                      :       0.0000001104
  | Normalization factor for density and gradient :       0.9999999931
  Obtaining max. number of non-zero basis functions in each batch (get_n_compute_maxes).
  | Maximal number of non-zero basis functions:       78 in task     0
  | Maximal number of non-zero basis functions:       78 in task     1
  | Maximal number of non-zero basis functions:       78 in task     2
  | Maximal number of non-zero basis functions:       78 in task     3
  Selecting the method for density update.
  Loop over occupied states selected for charge density update.
  Allocating        0.009 MB for KS_eigenvector
  Integrating Hamiltonian matrix: batch-based integration.
  Time summed over all CPUs for integration: real work        0.171 s, elapsed        0.176 s
  Integrating overlap matrix.
  Time summed over all CPUs for integration: real work        0.057 s, elapsed        0.059 s
  Deallocating overlap matrix.

  Updating Kohn-Sham eigenvalues and eigenvectors using ELSI and the ELPA eigensolver.
  ELPA settings:
  | ELPA solver          1
  | Time full => band           :     0.002 s
  | Time band => tridiagonal    :     0.001 s
  | Time solve tridiagonal      :     0.001 s
  Overlap matrix is nonsingular
  | Lowest eigenvalue of overlap  :  0.40E-03
  | Highest eigenvalue of overlap :  0.20E+01
  Finished singularity check of overlap matrix
  | Time :     0.003 s
  Finished Cholesky decomposition
  | Time :     0.001 s
  Finished transformation to standard eigenproblem
  | Time :     0.000 s
  Starting ELPA eigensolver
  | Time full => tridiagonal    :     0.001 s
  | Time solve tridiagonal      :     0.000 s
  | Time ev tridiagonal => full :     0.001 s
  Finished solving standard eigenproblem
  | Time :     0.002 s
  Finished back-transformation of eigenvectors
  | Time :     0.000 s

  Obtaining occupation numbers and chemical potential using ELSI.
  | Chemical potential (Fermi level):    -6.88568435eV
  Writing Kohn-Sham eigenvalues.

  State    Occupation    Eigenvalue [Ha]    Eigenvalue [eV]
      1       2.00000         -18.954097         -515.76723
      2       2.00000         -18.954065         -515.76635
      3       2.00000          -1.136778          -30.93330
      4       2.00000          -0.775137          -21.09256
      5       2.00000          -0.502611          -13.67675
      6       2.00000          -0.459269          -12.49735
      7       2.00000          -0.459269          -12.49735
      8       1.00000          -0.253044           -6.88568
      9       1.00000          -0.253044           -6.88568
     10       0.00000           0.038751            1.05446
     11       0.00000           0.090851            2.47218
     12       0.00000           0.134809            3.66833
     13       0.00000           0.134809            3.66833
     14       0.00000           0.160082            4.35606

  Highest occupied state (VBM) at     -6.88568435 eV
  | Occupation number:      1.00000000

  Lowest unoccupied state (CBM) at    -6.88568435 eV
  | Occupation number:      1.00000000

  Overall HOMO-LUMO gap:      0.00000000 eV.
  This system has fractional occupation numbers. Thus, it is a degenerate system
  within the approximate finite broadening function (occupation_type)
  applied to determine the occupation numbers.
  This may not be harmful. However, for some systems (free atoms), a different, non-degenerate
  ground state might exist by using a smaller broadening (see keyword occupation_type).
  Calculating total energy contributions from superposition of free atom densities.

  Total energy components:
  | Sum of eigenvalues            :         -82.98854388 Ha       -2258.23317670 eV
  | XC energy correction          :         -16.74425119 Ha        -455.63425720 eV
  | XC potential correction       :          21.52146109 Ha         585.62875278 eV
  | Free-atom electrostatic energy:         -72.18095355 Ha       -1964.14368076 eV
  | Hartree energy correction     :           0.00000000 Ha           0.00000000 eV
  | vdW energy correction         :           0.00000000 Ha           0.00000000 eV
  | Entropy correction            :          -0.00020734 Ha          -0.00564190 eV
  | ---------------------------
  | Total energy                  :        -150.39228753 Ha       -4092.38236188 eV
  | Total energy, T -> 0          :        -150.39249487 Ha       -4092.38800377 eV  <-- do not rely on this value for anything but (periodic) metals
  | Electronic free energy        :        -150.39270220 Ha       -4092.39364567 eV

  Derived energy quantities:
  | Kinetic energy                :         150.00529097 Ha        4081.85164954 eV
  | Electrostatic energy          :        -283.65332731 Ha       -7718.59975422 eV
  | Energy correction for multipole
  | error in Hartree potential    :           0.00000000 Ha           0.00000000 eV
  | Sum of eigenvalues per atom                           :       -1129.11658835 eV
  | Total energy (T->0) per atom                          :       -2046.19400189 eV  <-- do not rely on this value for anything but (periodic) metals
  | Electronic free energy per atom                       :       -2046.19682283 eV
  Initialize hartree_potential_storage
  Max. number of atoms included in rho_multipole:            2

  End scf initialization - timings             :  max(cpu_time)    wall_clock(cpu1)
  | Time for scf. initialization               :        0.098 s           0.112 s
  | Boundary condition initialization          :        0.000 s           0.001 s
  | Relaxation initialization                  :        0.000 s           0.001 s
  | Integration                                :        0.058 s           0.059 s
  | Solution of K.-S. eqns.                    :        0.005 s           0.008 s
  | Grid partitioning                          :        0.018 s           0.021 s
  | Preloading free-atom quantities on grid    :        0.003 s           0.004 s
  | Free-atom superposition energy             :        0.004 s           0.004 s
  | Total energy evaluation                    :        0.000 s           0.000 s

  Partial memory accounting:
  | Current value for overall tracked memory usage on task 0  :           0.085 MB
  | Peak value for overall tracked memory usage on task 0     :           0.476 MB after allocating wave
  | Largest tracked array allocation on task 0 so far         :           0.105 MB  when allocating H_times_psi
  Note:  These values currently only include a subset of arrays which are explicitly tracked.
  The "true" memory usage will be greater.
------------------------------------------------------------

------------------------------------------------------------
          Begin self-consistency iteration #    1

  Date     :  20200408, Time     :  082013.617
------------------------------------------------------------
  Evaluating new KS density.
  Integration grid: deviation in total charge (<rho> - N_e) =   7.105427E-15
  Pulay mixing of updated and previous charge densities.

  Evaluating partitioned Hartree potential by multipole expansion.
  | Analytical far-field extrapolation by fixed multipoles:
  | Hartree multipole sum: apparent total charge =   0.670111E-07
  Summing up the Hartree potential.
  Time summed over all CPUs for potential: real work        0.084 s, elapsed        0.085 s
  | RMS charge density error from multipole expansion :   0.339517E-03

  Integrating Hamiltonian matrix: batch-based integration.
  Time summed over all CPUs for integration: real work        0.164 s, elapsed        0.168 s

  Updating Kohn-Sham eigenvalues and eigenvectors using ELSI and the ELPA eigensolver.
  ELPA settings:
  | ELPA solver          1
  Finished transformation to standard eigenproblem
  | Time :     0.000 s
  Starting ELPA eigensolver
  | Time full => tridiagonal    :     0.000 s
  | Time solve tridiagonal      :     0.000 s
  | Time ev tridiagonal => full :     0.000 s
  Finished solving standard eigenproblem
  | Time :     0.001 s
  Finished back-transformation of eigenvectors
  | Time :     0.000 s

  Obtaining occupation numbers and chemical potential using ELSI.
  | Chemical potential (Fermi level):    -6.73344350eV
  Writing Kohn-Sham eigenvalues.

  State    Occupation    Eigenvalue [Ha]    Eigenvalue [eV]
      1       2.00000         -18.944984         -515.51925
      2       2.00000         -18.944952         -515.51836
      3       2.00000          -1.138655          -30.98437
      4       2.00000          -0.766784          -20.86526
      5       2.00000          -0.495373          -13.47978
      6       2.00000          -0.456105          -12.41124
      7       2.00000          -0.456105          -12.41124
      8       1.00000          -0.247450           -6.73344
      9       1.00000          -0.247450           -6.73344
     10       0.00000           0.040368            1.09847
     11       0.00000           0.092592            2.51956
     12       0.00000           0.135836            3.69629
     13       0.00000           0.135836            3.69629
     14       0.00000           0.163196            4.44080

  Highest occupied state (VBM) at     -6.73344350 eV
  | Occupation number:      1.00000000

  Lowest unoccupied state (CBM) at    -6.73344350 eV
  | Occupation number:      1.00000000

  Overall HOMO-LUMO gap:      0.00000000 eV.
  This system has fractional occupation numbers. Thus, it is a degenerate system
  within the approximate finite broadening function (occupation_type)
  applied to determine the occupation numbers.
  This may not be harmful. However, for some systems (free atoms), a different, non-degenerate
  ground state might exist by using a smaller broadening (see keyword occupation_type).

  Total energy components:
  | Sum of eigenvalues            :         -82.90081296 Ha       -2255.84589694 eV
  | XC energy correction          :         -16.76053651 Ha        -456.07740347 eV
  | XC potential correction       :          21.54266288 Ha         586.20568269 eV
  | Free-atom electrostatic energy:         -72.18095355 Ha       -1964.14368076 eV
  | Hartree energy correction     :          -0.08868584 Ha          -2.41326458 eV
  | vdW energy correction         :           0.00000000 Ha           0.00000000 eV
  | Entropy correction            :          -0.00020734 Ha          -0.00564190 eV
  | ---------------------------
  | Total energy                  :        -150.38832600 Ha       -4092.27456306 eV
  | Total energy, T -> 0          :        -150.38853333 Ha       -4092.28020495 eV  <-- do not rely on this value for anything but (periodic) metals
  | Electronic free energy        :        -150.38874067 Ha       -4092.28584685 eV

  Derived energy quantities:
  | Kinetic energy                :         150.06726557 Ha        4083.53806424 eV
  | Electrostatic energy          :        -283.69505505 Ha       -7719.73522383 eV
  | Energy correction for multipole
  | error in Hartree potential    :          -0.00012769 Ha          -0.00347465 eV
  | Sum of eigenvalues per atom                           :       -1127.92294847 eV
  | Total energy (T->0) per atom                          :       -2046.14010248 eV  <-- do not rely on this value for anything but (periodic) metals
  | Electronic free energy per atom                       :       -2046.14292343 eV

  Self-consistency convergence accuracy:
  | Change of charge density      :  0.1688E+00
  | Change of sum of eigenvalues  :  0.2387E+01 eV
  | Change of total energy        :  0.1078E+00 eV

  End self-consistency iteration #     1       :  max(cpu_time)    wall_clock(cpu1)
  | Time for this iteration                    :        0.110 s           0.111 s
  | Charge density update                      :        0.039 s           0.039 s
  | Density mixing                             :        0.001 s           0.002 s
  | Hartree multipole update                   :        0.006 s           0.005 s
  | Hartree multipole summation                :        0.021 s           0.022 s
  | Integration                                :        0.042 s           0.042 s
  | Solution of K.-S. eqns.                    :        0.001 s           0.001 s
  | Total energy evaluation                    :        0.000 s           0.000 s

  Partial memory accounting:
  | Current value for overall tracked memory usage on task 0  :           0.085 MB
  | Peak value for overall tracked memory usage on task 0     :           0.506 MB after allocating gradient_basis_wave
  | Largest tracked array allocation on task 0 so far         :           0.316 MB  when allocating gradient_basis_wave
  Note:  These values currently only include a subset of arrays which are explicitly tracked.
  The "true" memory usage will be greater.
------------------------------------------------------------

------------------------------------------------------------
          Begin self-consistency iteration #    2

  Date     :  20200408, Time     :  082013.728
------------------------------------------------------------
  Evaluating new KS density.
  Integration grid: deviation in total charge (<rho> - N_e) =   7.815970E-14
  Pulay mixing of updated and previous charge densities.

  Evaluating partitioned Hartree potential by multipole expansion.
  | Analytical far-field extrapolation by fixed multipoles:
  | Hartree multipole sum: apparent total charge =  -0.559513E-07
  Summing up the Hartree potential.
  Time summed over all CPUs for potential: real work        0.083 s, elapsed        0.083 s
  | RMS charge density error from multipole expansion :   0.136989E-02

  Integrating Hamiltonian matrix: batch-based integration.
  Time summed over all CPUs for integration: real work        0.164 s, elapsed        0.168 s

  Updating Kohn-Sham eigenvalues and eigenvectors using ELSI and the ELPA eigensolver.
  ELPA settings:
  | ELPA solver          1
  Finished transformation to standard eigenproblem
  | Time :     0.000 s
  Starting ELPA eigensolver
  | Time full => tridiagonal    :     0.000 s
  | Time solve tridiagonal      :     0.000 s
  | Time ev tridiagonal => full :     0.000 s
  Finished solving standard eigenproblem
  | Time :     0.001 s
  Finished back-transformation of eigenvectors
  | Time :     0.000 s

  Obtaining occupation numbers and chemical potential using ELSI.
  | Chemical potential (Fermi level):    -6.34228589eV
  Highest occupied state (VBM) at     -6.34228589 eV
  | Occupation number:      1.00000000

  Lowest unoccupied state (CBM) at    -6.34228589 eV
  | Occupation number:      1.00000000

  Overall HOMO-LUMO gap:      0.00000000 eV.
  This system has fractional occupation numbers. Thus, it is a degenerate system
  within the approximate finite broadening function (occupation_type)
  applied to determine the occupation numbers.
  This may not be harmful. However, for some systems (free atoms), a different, non-degenerate
  ground state might exist by using a smaller broadening (see keyword occupation_type).

  Checking to see if s.c.f. parameters should be adjusted.

  Total energy components:
  | Sum of eigenvalues            :         -82.68783423 Ha       -2250.05045073 eV
  | XC energy correction          :         -16.80365767 Ha        -457.25078997 eV
  | XC potential correction       :          21.59869454 Ha         587.73038186 eV
  | Free-atom electrostatic energy:         -72.18095355 Ha       -1964.14368076 eV
  | Hartree energy correction     :          -0.31118962 Ha          -8.46790036 eV
  | vdW energy correction         :           0.00000000 Ha           0.00000000 eV
  | Entropy correction            :          -0.00020734 Ha          -0.00564190 eV
  | ---------------------------
  | Total energy                  :        -150.38494054 Ha       -4092.18243996 eV
  | Total energy, T -> 0          :        -150.38514787 Ha       -4092.18808185 eV  <-- do not rely on this value for anything but (periodic) metals
  | Electronic free energy        :        -150.38535521 Ha       -4092.19372375 eV

  Derived energy quantities:
  | Kinetic energy                :         150.17046491 Ha        4086.34626113 eV
  | Electrostatic energy          :        -283.75174777 Ha       -7721.27791112 eV
  | Energy correction for multipole
  | error in Hartree potential    :          -0.00055501 Ha          -0.01510261 eV
  | Sum of eigenvalues per atom                           :       -1125.02522537 eV
  | Total energy (T->0) per atom                          :       -2046.09404093 eV  <-- do not rely on this value for anything but (periodic) metals
  | Electronic free energy per atom                       :       -2046.09686188 eV

  Self-consistency convergence accuracy:
  | Change of charge density      :  0.1261E+00
  | Change of sum of eigenvalues  :  0.5795E+01 eV
  | Change of total energy        :  0.9212E-01 eV

  End self-consistency iteration #     2       :  max(cpu_time)    wall_clock(cpu1)
  | Time for this iteration                    :        0.110 s           0.111 s
  | Charge density update                      :        0.039 s           0.039 s
  | Density mixing                             :        0.002 s           0.002 s
  | Hartree multipole update                   :        0.006 s           0.005 s
  | Hartree multipole summation                :        0.021 s           0.021 s
  | Integration                                :        0.042 s           0.042 s
  | Solution of K.-S. eqns.                    :        0.001 s           0.001 s
  | Total energy evaluation                    :        0.000 s           0.000 s

  Partial memory accounting:
  | Current value for overall tracked memory usage on task 0  :           0.085 MB
  | Peak value for overall tracked memory usage on task 0     :           0.506 MB after allocating gradient_basis_wave
  | Largest tracked array allocation on task 0 so far         :           0.316 MB  when allocating gradient_basis_wave
  Note:  These values currently only include a subset of arrays which are explicitly tracked.
  The "true" memory usage will be greater.
------------------------------------------------------------

------------------------------------------------------------
          Begin self-consistency iteration #    3

  Date     :  20200408, Time     :  082013.839
------------------------------------------------------------
  Evaluating new KS density.
  Integration grid: deviation in total charge (<rho> - N_e) =   7.105427E-14
  Pulay mixing of updated and previous charge densities.

  Evaluating partitioned Hartree potential by multipole expansion.
  | Analytical far-field extrapolation by fixed multipoles:
  | Hartree multipole sum: apparent total charge =  -0.640921E-07
  Summing up the Hartree potential.
  Time summed over all CPUs for potential: real work        0.083 s, elapsed        0.083 s
  | RMS charge density error from multipole expansion :   0.172392E-02

  Integrating Hamiltonian matrix: batch-based integration.
  Time summed over all CPUs for integration: real work        0.163 s, elapsed        0.167 s

  Updating Kohn-Sham eigenvalues and eigenvectors using ELSI and the ELPA eigensolver.
  ELPA settings:
  | ELPA solver          1
  Finished transformation to standard eigenproblem
  | Time :     0.000 s
  Starting ELPA eigensolver
  | Time full => tridiagonal    :     0.000 s
  | Time solve tridiagonal      :     0.000 s
  | Time ev tridiagonal => full :     0.000 s
  Finished solving standard eigenproblem
  | Time :     0.000 s
  Finished back-transformation of eigenvectors
  | Time :     0.000 s

  Obtaining occupation numbers and chemical potential using ELSI.
  | Chemical potential (Fermi level):    -6.39013341eV
  Highest occupied state (VBM) at     -6.39013341 eV
  | Occupation number:      1.00000000

  Lowest unoccupied state (CBM) at    -6.39013341 eV
  | Occupation number:      1.00000000

  Overall HOMO-LUMO gap:      0.00000000 eV.
  This system has fractional occupation numbers. Thus, it is a degenerate system
  within the approximate finite broadening function (occupation_type)
  applied to determine the occupation numbers.
  This may not be harmful. However, for some systems (free atoms), a different, non-degenerate
  ground state might exist by using a smaller broadening (see keyword occupation_type).

  Total energy components:
  | Sum of eigenvalues            :         -82.74740351 Ha       -2251.67141334 eV
  | XC energy correction          :         -16.79377379 Ha        -456.98183593 eV
  | XC potential correction       :          21.58575859 Ha         587.37837680 eV
  | Free-atom electrostatic energy:         -72.18095355 Ha       -1964.14368076 eV
  | Hartree energy correction     :          -0.24843515 Ha          -6.76026427 eV
  | vdW energy correction         :           0.00000000 Ha           0.00000000 eV
  | Entropy correction            :          -0.00020734 Ha          -0.00564190 eV
  | ---------------------------
  | Total energy                  :        -150.38480741 Ha       -4092.17881749 eV
  | Total energy, T -> 0          :        -150.38501475 Ha       -4092.18445939 eV  <-- do not rely on this value for anything but (periodic) metals
  | Electronic free energy        :        -150.38522209 Ha       -4092.19010128 eV

  Derived energy quantities:
  | Kinetic energy                :         150.02553761 Ha        4082.40258863 eV
  | Electrostatic energy          :        -283.61657123 Ha       -7717.59957019 eV
  | Energy correction for multipole
  | error in Hartree potential    :          -0.00080718 Ha          -0.02196443 eV
  | Sum of eigenvalues per atom                           :       -1125.83570667 eV
  | Total energy (T->0) per atom                          :       -2046.09222969 eV  <-- do not rely on this value for anything but (periodic) metals
  | Electronic free energy per atom                       :       -2046.09505064 eV

  Self-consistency convergence accuracy:
  | Change of charge density      :  0.2675E-01
  | Change of sum of eigenvalues  : -0.1621E+01 eV
  | Change of total energy        :  0.3622E-02 eV

  End self-consistency iteration #     3       :  max(cpu_time)    wall_clock(cpu1)
  | Time for this iteration                    :        0.110 s           0.109 s
  | Charge density update                      :        0.038 s           0.038 s
  | Density mixing                             :        0.002 s           0.002 s
  | Hartree multipole update                   :        0.006 s           0.005 s
  | Hartree multipole summation                :        0.021 s           0.022 s
  | Integration                                :        0.042 s           0.041 s
  | Solution of K.-S. eqns.                    :        0.001 s           0.001 s
  | Total energy evaluation                    :        0.000 s           0.000 s

  Partial memory accounting:
  | Current value for overall tracked memory usage on task 0  :           0.085 MB
  | Peak value for overall tracked memory usage on task 0     :           0.507 MB after allocating gradient_basis_wave
  | Largest tracked array allocation on task 0 so far         :           0.316 MB  when allocating gradient_basis_wave
  Note:  These values currently only include a subset of arrays which are explicitly tracked.
  The "true" memory usage will be greater.
------------------------------------------------------------

------------------------------------------------------------
          Begin self-consistency iteration #    4

  Date     :  20200408, Time     :  082013.948
------------------------------------------------------------
  Evaluating new KS density.
  Integration grid: deviation in total charge (<rho> - N_e) =  -1.065814E-13
  Pulay mixing of updated and previous charge densities.

  Evaluating partitioned Hartree potential by multipole expansion.
  | Analytical far-field extrapolation by fixed multipoles:
  | Hartree multipole sum: apparent total charge =  -0.640474E-07
  Summing up the Hartree potential.
  Time summed over all CPUs for potential: real work        0.083 s, elapsed        0.084 s
  | RMS charge density error from multipole expansion :   0.175936E-02

  Integrating Hamiltonian matrix: batch-based integration.
  Time summed over all CPUs for integration: real work        0.164 s, elapsed        0.168 s

  Updating Kohn-Sham eigenvalues and eigenvectors using ELSI and the ELPA eigensolver.
  ELPA settings:
  | ELPA solver          1
  Finished transformation to standard eigenproblem
  | Time :     0.000 s
  Starting ELPA eigensolver
  | Time full => tridiagonal    :     0.000 s
  | Time solve tridiagonal      :     0.000 s
  | Time ev tridiagonal => full :     0.000 s
  Finished solving standard eigenproblem
  | Time :     0.000 s
  Finished back-transformation of eigenvectors
  | Time :     0.000 s

  Obtaining occupation numbers and chemical potential using ELSI.
  | Chemical potential (Fermi level):    -6.35945435eV
  Highest occupied state (VBM) at     -6.35945435 eV
  | Occupation number:      1.00000000

  Lowest unoccupied state (CBM) at    -6.35945435 eV
  | Occupation number:      1.00000000

  Overall HOMO-LUMO gap:      0.00000000 eV.
  This system has fractional occupation numbers. Thus, it is a degenerate system
  within the approximate finite broadening function (occupation_type)
  applied to determine the occupation numbers.
  This may not be harmful. However, for some systems (free atoms), a different, non-degenerate
  ground state might exist by using a smaller broadening (see keyword occupation_type).

  Total energy components:
  | Sum of eigenvalues            :         -82.72478864 Ha       -2251.05603128 eV
  | XC energy correction          :         -16.79705704 Ha        -457.07117752 eV
  | XC potential correction       :          21.59002665 Ha         587.49451649 eV
  | Free-atom electrostatic energy:         -72.18095355 Ha       -1964.14368076 eV
  | Hartree energy correction     :          -0.27203407 Ha          -7.40242361 eV
  | vdW energy correction         :           0.00000000 Ha           0.00000000 eV
  | Entropy correction            :          -0.00020734 Ha          -0.00564190 eV
  | ---------------------------
  | Total energy                  :        -150.38480665 Ha       -4092.17879668 eV
  | Total energy, T -> 0          :        -150.38501398 Ha       -4092.18443858 eV  <-- do not rely on this value for anything but (periodic) metals
  | Electronic free energy        :        -150.38522132 Ha       -4092.19008047 eV

  Derived energy quantities:
  | Kinetic energy                :         150.04721734 Ha        4082.99252419 eV
  | Electrostatic energy          :        -283.63496695 Ha       -7718.10014335 eV
  | Energy correction for multipole
  | error in Hartree potential    :          -0.00081363 Ha          -0.02213996 eV
  | Sum of eigenvalues per atom                           :       -1125.52801564 eV
  | Total energy (T->0) per atom                          :       -2046.09221929 eV  <-- do not rely on this value for anything but (periodic) metals
  | Electronic free energy per atom                       :       -2046.09504024 eV

  Self-consistency convergence accuracy:
  | Change of charge density      :  0.2711E-02
  | Change of sum of eigenvalues  :  0.6154E+00 eV
  | Change of total energy        :  0.2081E-04 eV

  End self-consistency iteration #     4       :  max(cpu_time)    wall_clock(cpu1)
  | Time for this iteration                    :        0.111 s           0.112 s
  | Charge density update                      :        0.039 s           0.039 s
  | Density mixing                             :        0.003 s           0.003 s
  | Hartree multipole update                   :        0.006 s           0.006 s
  | Hartree multipole summation                :        0.021 s           0.021 s
  | Integration                                :        0.042 s           0.042 s
  | Solution of K.-S. eqns.                    :        0.001 s           0.001 s
  | Total energy evaluation                    :        0.000 s           0.000 s

  Partial memory accounting:
  | Current value for overall tracked memory usage on task 0  :           0.085 MB
  | Peak value for overall tracked memory usage on task 0     :           0.507 MB after allocating gradient_basis_wave
  | Largest tracked array allocation on task 0 so far         :           0.316 MB  when allocating gradient_basis_wave
  Note:  These values currently only include a subset of arrays which are explicitly tracked.
  The "true" memory usage will be greater.
------------------------------------------------------------

------------------------------------------------------------
          Begin self-consistency iteration #    5

  Date     :  20200408, Time     :  082014.060
------------------------------------------------------------
  Evaluating new KS density.
  Integration grid: deviation in total charge (<rho> - N_e) =  -5.329071E-15
  Pulay mixing of updated and previous charge densities.

  Evaluating partitioned Hartree potential by multipole expansion.
  | Analytical far-field extrapolation by fixed multipoles:
  | Hartree multipole sum: apparent total charge =  -0.620464E-07
  Summing up the Hartree potential.
  Time summed over all CPUs for potential: real work        0.084 s, elapsed        0.085 s
  | RMS charge density error from multipole expansion :   0.175012E-02

  Integrating Hamiltonian matrix: batch-based integration.
  Time summed over all CPUs for integration: real work        0.166 s, elapsed        0.170 s

  Updating Kohn-Sham eigenvalues and eigenvectors using ELSI and the ELPA eigensolver.
  ELPA settings:
  | ELPA solver          1
  Finished transformation to standard eigenproblem
  | Time :     0.000 s
  Starting ELPA eigensolver
  | Time full => tridiagonal    :     0.000 s
  | Time solve tridiagonal      :     0.000 s
  | Time ev tridiagonal => full :     0.000 s
  Finished solving standard eigenproblem
  | Time :     0.000 s
  Finished back-transformation of eigenvectors
  | Time :     0.000 s

  Obtaining occupation numbers and chemical potential using ELSI.
  | Chemical potential (Fermi level):    -6.36803999eV
  Highest occupied state (VBM) at     -6.36803999 eV
  | Occupation number:      1.00000003

  Lowest unoccupied state (CBM) at    -6.36803999 eV
  | Occupation number:      0.99999997

  Overall HOMO-LUMO gap:      0.00000000 eV.
  This system has fractional occupation numbers. Thus, it is a degenerate system
  within the approximate finite broadening function (occupation_type)
  applied to determine the occupation numbers.
  This may not be harmful. However, for some systems (free atoms), a different, non-degenerate
  ground state might exist by using a smaller broadening (see keyword occupation_type).

  Total energy components:
  | Sum of eigenvalues            :         -82.73009118 Ha       -2251.20032093 eV
  | XC energy correction          :         -16.79604111 Ha        -457.04353285 eV
  | XC potential correction       :          21.58870421 Ha         587.45853104 eV
  | Free-atom electrostatic energy:         -72.18095355 Ha       -1964.14368076 eV
  | Hartree energy correction     :          -0.26642305 Ha          -7.24974014 eV
  | vdW energy correction         :           0.00000000 Ha           0.00000000 eV
  | Entropy correction            :          -0.00020734 Ha          -0.00564190 eV
  | ---------------------------
  | Total energy                  :        -150.38480470 Ha       -4092.17874363 eV
  | Total energy, T -> 0          :        -150.38501204 Ha       -4092.18438553 eV  <-- do not rely on this value for anything but (periodic) metals
  | Electronic free energy        :        -150.38521937 Ha       -4092.19002743 eV

  Derived energy quantities:
  | Kinetic energy                :         150.04294949 Ha        4082.87639018 eV
  | Electrostatic energy          :        -283.63171308 Ha       -7718.01160096 eV
  | Energy correction for multipole
  | error in Hartree potential    :          -0.00081077 Ha          -0.02206218 eV
  | Sum of eigenvalues per atom                           :       -1125.60016046 eV
  | Total energy (T->0) per atom                          :       -2046.09219276 eV  <-- do not rely on this value for anything but (periodic) metals
  | Electronic free energy per atom                       :       -2046.09501371 eV

  Self-consistency convergence accuracy:
  | Change of charge density      :  0.2138E-02
  | Change of sum of eigenvalues  : -0.1443E+00 eV
  | Change of total energy        :  0.5305E-04 eV

  End self-consistency iteration #     5       :  max(cpu_time)    wall_clock(cpu1)
  | Time for this iteration                    :        0.112 s           0.112 s
  | Charge density update                      :        0.038 s           0.038 s
  | Density mixing                             :        0.004 s           0.003 s
  | Hartree multipole update                   :        0.006 s           0.005 s
  | Hartree multipole summation                :        0.021 s           0.022 s
  | Integration                                :        0.042 s           0.042 s
  | Solution of K.-S. eqns.                    :        0.001 s           0.001 s
  | Total energy evaluation                    :        0.000 s           0.000 s

  Partial memory accounting:
  | Current value for overall tracked memory usage on task 0  :           0.085 MB
  | Peak value for overall tracked memory usage on task 0     :           0.507 MB after allocating gradient_basis_wave
  | Largest tracked array allocation on task 0 so far         :           0.316 MB  when allocating gradient_basis_wave
  Note:  These values currently only include a subset of arrays which are explicitly tracked.
  The "true" memory usage will be greater.
------------------------------------------------------------

------------------------------------------------------------
          Begin self-consistency iteration #    6

  Date     :  20200408, Time     :  082014.172
------------------------------------------------------------
  Evaluating new KS density.
  Integration grid: deviation in total charge (<rho> - N_e) =   1.030287E-13
  Pulay mixing of updated and previous charge densities.

  Evaluating partitioned Hartree potential by multipole expansion.
  | Analytical far-field extrapolation by fixed multipoles:
  | Hartree multipole sum: apparent total charge =  -0.603929E-07
  Summing up the Hartree potential.
  Time summed over all CPUs for potential: real work        0.086 s, elapsed        0.087 s
  | RMS charge density error from multipole expansion :   0.175422E-02

  Integrating Hamiltonian matrix: batch-based integration.
  Time summed over all CPUs for integration: real work        0.165 s, elapsed        0.170 s

  Updating Kohn-Sham eigenvalues and eigenvectors using ELSI and the ELPA eigensolver.
  ELPA settings:
  | ELPA solver          1
  Finished transformation to standard eigenproblem
  | Time :     0.000 s
  Starting ELPA eigensolver
  | Time full => tridiagonal    :     0.000 s
  | Time solve tridiagonal      :     0.000 s
  | Time ev tridiagonal => full :     0.000 s
  Finished solving standard eigenproblem
  | Time :     0.000 s
  Finished back-transformation of eigenvectors
  | Time :     0.000 s

  Obtaining occupation numbers and chemical potential using ELSI.
  | Chemical potential (Fermi level):    -6.37087467eV
  Highest occupied state (VBM) at     -6.37087469 eV
  | Occupation number:      1.00000157

  Lowest unoccupied state (CBM) at    -6.37087466 eV
  | Occupation number:      0.99999843

  Overall HOMO-LUMO gap:      0.00000003 eV.
  This system has fractional occupation numbers. Thus, it is a degenerate system
  within the approximate finite broadening function (occupation_type)
  applied to determine the occupation numbers.
  This may not be harmful. However, for some systems (free atoms), a different, non-degenerate
  ground state might exist by using a smaller broadening (see keyword occupation_type).

  Total energy components:
  | Sum of eigenvalues            :         -82.73154762 Ha       -2251.23995247 eV
  | XC energy correction          :         -16.79594154 Ha        -457.04082315 eV
  | XC potential correction       :          21.58856596 Ha         587.45476921 eV
  | Free-atom electrostatic energy:         -72.18095355 Ha       -1964.14368076 eV
  | Hartree energy correction     :          -0.26492786 Ha          -7.20905374 eV
  | vdW energy correction         :           0.00000000 Ha           0.00000000 eV
  | Entropy correction            :          -0.00020734 Ha          -0.00564190 eV
  | ---------------------------
  | Total energy                  :        -150.38480460 Ha       -4092.17874090 eV
  | Total energy, T -> 0          :        -150.38501193 Ha       -4092.18438280 eV  <-- do not rely on this value for anything but (periodic) metals
  | Electronic free energy        :        -150.38521927 Ha       -4092.19002469 eV

  Derived energy quantities:
  | Kinetic energy                :         150.04381627 Ha        4082.89997629 eV
  | Electrostatic energy          :        -283.63267933 Ha       -7718.03789405 eV
  | Energy correction for multipole
  | error in Hartree potential    :          -0.00080905 Ha          -0.02201533 eV
  | Sum of eigenvalues per atom                           :       -1125.61997623 eV
  | Total energy (T->0) per atom                          :       -2046.09219140 eV  <-- do not rely on this value for anything but (periodic) metals
  | Electronic free energy per atom                       :       -2046.09501235 eV

  Self-consistency convergence accuracy:
  | Change of charge density      :  0.4067E-03
  | Change of sum of eigenvalues  : -0.3963E-01 eV
  | Change of total energy        :  0.2730E-05 eV

  End self-consistency iteration #     6       :  max(cpu_time)    wall_clock(cpu1)
  | Time for this iteration                    :        0.114 s           0.114 s
  | Charge density update                      :        0.038 s           0.038 s
  | Density mixing                             :        0.005 s           0.005 s
  | Hartree multipole update                   :        0.006 s           0.005 s
  | Hartree multipole summation                :        0.022 s           0.023 s
  | Integration                                :        0.043 s           0.042 s
  | Solution of K.-S. eqns.                    :        0.001 s           0.001 s
  | Total energy evaluation                    :        0.000 s           0.000 s

  Partial memory accounting:
  | Current value for overall tracked memory usage on task 0  :           0.085 MB
  | Peak value for overall tracked memory usage on task 0     :           0.507 MB after allocating gradient_basis_wave
  | Largest tracked array allocation on task 0 so far         :           0.316 MB  when allocating gradient_basis_wave
  Note:  These values currently only include a subset of arrays which are explicitly tracked.
  The "true" memory usage will be greater.
------------------------------------------------------------

------------------------------------------------------------
          Begin self-consistency iteration #    7

  Date     :  20200408, Time     :  082014.286
------------------------------------------------------------
  Evaluating new KS density.
  Integration grid: deviation in total charge (<rho> - N_e) =   3.552714E-14
  Pulay mixing of updated and previous charge densities.

  Evaluating partitioned Hartree potential by multipole expansion.
  | Analytical far-field extrapolation by fixed multipoles:
  | Hartree multipole sum: apparent total charge =  -0.603631E-07
  Summing up the Hartree potential.
  Time summed over all CPUs for potential: real work        0.083 s, elapsed        0.083 s
  | RMS charge density error from multipole expansion :   0.175427E-02

  Integrating Hamiltonian matrix: batch-based integration.
  Time summed over all CPUs for integration: real work        0.164 s, elapsed        0.168 s

  Updating Kohn-Sham eigenvalues and eigenvectors using ELSI and the ELPA eigensolver.
  ELPA settings:
  | ELPA solver          1
  Finished transformation to standard eigenproblem
  | Time :     0.000 s
  Starting ELPA eigensolver
  | Time full => tridiagonal    :     0.000 s
  | Time solve tridiagonal      :     0.000 s
  | Time ev tridiagonal => full :     0.000 s
  Finished solving standard eigenproblem
  | Time :     0.001 s
  Finished back-transformation of eigenvectors
  | Time :     0.000 s

  Obtaining occupation numbers and chemical potential using ELSI.
  | Chemical potential (Fermi level):    -6.37099470eV
  Highest occupied state (VBM) at     -6.37099502 eV
  | Occupation number:      1.00003659

  Lowest unoccupied state (CBM) at    -6.37099437 eV
  | Occupation number:      0.99996341

  Overall HOMO-LUMO gap:      0.00000065 eV.
  This system has fractional occupation numbers. Thus, it is a degenerate system
  within the approximate finite broadening function (occupation_type)
  applied to determine the occupation numbers.
  This may not be harmful. However, for some systems (free atoms), a different, non-degenerate
  ground state might exist by using a smaller broadening (see keyword occupation_type).

  Total energy components:
  | Sum of eigenvalues            :         -82.73163611 Ha       -2251.24236041 eV
  | XC energy correction          :         -16.79593314 Ha        -457.04059461 eV
  | XC potential correction       :          21.58855482 Ha         587.45446605 eV
  | Free-atom electrostatic energy:         -72.18095355 Ha       -1964.14368076 eV
  | Hartree energy correction     :          -0.26483662 Ha          -7.20657118 eV
  | vdW energy correction         :           0.00000000 Ha           0.00000000 eV
  | Entropy correction            :          -0.00020734 Ha          -0.00564190 eV
  | ---------------------------
  | Total energy                  :        -150.38480460 Ha       -4092.17874090 eV
  | Total energy, T -> 0          :        -150.38501193 Ha       -4092.18438280 eV  <-- do not rely on this value for anything but (periodic) metals
  | Electronic free energy        :        -150.38521927 Ha       -4092.19002469 eV

  Derived energy quantities:
  | Kinetic energy                :         150.04378464 Ha        4082.89911557 eV
  | Electrostatic energy          :        -283.63265610 Ha       -7718.03726185 eV
  | Energy correction for multipole
  | error in Hartree potential    :          -0.00080910 Ha          -0.02201674 eV
  | Sum of eigenvalues per atom                           :       -1125.62118020 eV
  | Total energy (T->0) per atom                          :       -2046.09219140 eV  <-- do not rely on this value for anything but (periodic) metals
  | Electronic free energy per atom                       :       -2046.09501235 eV

  Self-consistency convergence accuracy:
  | Change of charge density      :  0.1226E-04
  | Change of sum of eigenvalues  : -0.2408E-02 eV
  | Change of total energy        :  0.3397E-08 eV

  End self-consistency iteration #     7       :  max(cpu_time)    wall_clock(cpu1)
  | Time for this iteration                    :        0.113 s           0.114 s
  | Charge density update                      :        0.038 s           0.038 s
  | Density mixing                             :        0.006 s           0.006 s
  | Hartree multipole update                   :        0.006 s           0.006 s
  | Hartree multipole summation                :        0.021 s           0.021 s
  | Integration                                :        0.042 s           0.042 s
  | Solution of K.-S. eqns.                    :        0.001 s           0.000 s
  | Total energy evaluation                    :        0.000 s           0.001 s

  Partial memory accounting:
  | Current value for overall tracked memory usage on task 0  :           0.085 MB
  | Peak value for overall tracked memory usage on task 0     :           0.507 MB after allocating gradient_basis_wave
  | Largest tracked array allocation on task 0 so far         :           0.316 MB  when allocating gradient_basis_wave
  Note:  These values currently only include a subset of arrays which are explicitly tracked.
  The "true" memory usage will be greater.
------------------------------------------------------------

------------------------------------------------------------
          Begin self-consistency iteration #    8

  Date     :  20200408, Time     :  082014.400
------------------------------------------------------------
  Evaluating new KS density.
  Integration grid: deviation in total charge (<rho> - N_e) =  -6.572520E-14
  Pulay mixing of updated and previous charge densities.

  Evaluating partitioned Hartree potential by multipole expansion.
  | Analytical far-field extrapolation by fixed multipoles:
  | Hartree multipole sum: apparent total charge =  -0.603485E-07
  Summing up the Hartree potential.
  Time summed over all CPUs for potential: real work        0.083 s, elapsed        0.083 s
  | RMS charge density error from multipole expansion :   0.175429E-02

  Integrating Hamiltonian matrix: batch-based integration.
  Time summed over all CPUs for integration: real work        0.167 s, elapsed        0.172 s

  Updating Kohn-Sham eigenvalues and eigenvectors using ELSI and the ELPA eigensolver.
  ELPA settings:
  | ELPA solver          1
  Finished transformation to standard eigenproblem
  | Time :     0.000 s
  Starting ELPA eigensolver
  | Time full => tridiagonal    :     0.000 s
  | Time solve tridiagonal      :     0.000 s
  | Time ev tridiagonal => full :     0.000 s
  Finished solving standard eigenproblem
  | Time :     0.001 s
  Finished back-transformation of eigenvectors
  | Time :     0.000 s

  Obtaining occupation numbers and chemical potential using ELSI.
  | Chemical potential (Fermi level):    -6.37101750eV
  Highest occupied state (VBM) at     -6.37101860 eV
  | Occupation number:      1.00012426

  Lowest unoccupied state (CBM) at    -6.37101640 eV
  | Occupation number:      0.99987574

  Overall HOMO-LUMO gap:      0.00000220 eV.
  This system has fractional occupation numbers. Thus, it is a degenerate system
  within the approximate finite broadening function (occupation_type)
  applied to determine the occupation numbers.
  This may not be harmful. However, for some systems (free atoms), a different, non-degenerate
  ground state might exist by using a smaller broadening (see keyword occupation_type).

  Total energy components:
  | Sum of eigenvalues            :         -82.73165013 Ha       -2251.24274203 eV
  | XC energy correction          :         -16.79593201 Ha        -457.04056402 eV
  | XC potential correction       :          21.58855329 Ha         587.45442439 eV
  | Free-atom electrostatic energy:         -72.18095355 Ha       -1964.14368076 eV
  | Hartree energy correction     :          -0.26482219 Ha          -7.20617848 eV
  | vdW energy correction         :           0.00000000 Ha           0.00000000 eV
  | Entropy correction            :          -0.00020734 Ha          -0.00564190 eV
  | ---------------------------
  | Total energy                  :        -150.38480460 Ha       -4092.17874090 eV
  | Total energy, T -> 0          :        -150.38501193 Ha       -4092.18438279 eV  <-- do not rely on this value for anything but (periodic) metals
  | Electronic free energy        :        -150.38521927 Ha       -4092.19002469 eV

  Derived energy quantities:
  | Kinetic energy                :         150.04379346 Ha        4082.89935579 eV
  | Electrostatic energy          :        -283.63266605 Ha       -7718.03753267 eV
  | Energy correction for multipole
  | error in Hartree potential    :          -0.00080911 Ha          -0.02201702 eV
  | Sum of eigenvalues per atom                           :       -1125.62137102 eV
  | Total energy (T->0) per atom                          :       -2046.09219140 eV  <-- do not rely on this value for anything but (periodic) metals
  | Electronic free energy per atom                       :       -2046.09501234 eV

  Self-consistency convergence accuracy:
  | Change of charge density      :  0.1486E-04
  | Change of sum of eigenvalues  : -0.3816E-03 eV
  | Change of total energy        :  0.1876E-08 eV

  End self-consistency iteration #     8       :  max(cpu_time)    wall_clock(cpu1)
  | Time for this iteration                    :        0.115 s           0.114 s
  | Charge density update                      :        0.038 s           0.037 s
  | Density mixing                             :        0.006 s           0.007 s
  | Hartree multipole update                   :        0.006 s           0.005 s
  | Hartree multipole summation                :        0.021 s           0.021 s
  | Integration                                :        0.043 s           0.043 s
  | Solution of K.-S. eqns.                    :        0.001 s           0.001 s
  | Total energy evaluation                    :        0.000 s           0.000 s

  Partial memory accounting:
  | Current value for overall tracked memory usage on task 0  :           0.085 MB
  | Peak value for overall tracked memory usage on task 0     :           0.507 MB after allocating gradient_basis_wave
  | Largest tracked array allocation on task 0 so far         :           0.316 MB  when allocating gradient_basis_wave
  Note:  These values currently only include a subset of arrays which are explicitly tracked.
  The "true" memory usage will be greater.
------------------------------------------------------------

------------------------------------------------------------
          Begin self-consistency iteration #    9

  Date     :  20200408, Time     :  082014.514
------------------------------------------------------------
  Evaluating new KS density.
  Integration grid: deviation in total charge (<rho> - N_e) =  -6.750156E-14
  Pulay mixing of updated and previous charge densities.

  Evaluating partitioned Hartree potential by multipole expansion.
  | Analytical far-field extrapolation by fixed multipoles:
  | Hartree multipole sum: apparent total charge =  -0.602955E-07
  Summing up the Hartree potential.
  Time summed over all CPUs for potential: real work        0.083 s, elapsed        0.084 s
  | RMS charge density error from multipole expansion :   0.175434E-02

  Integrating Hamiltonian matrix: batch-based integration.
  Time summed over all CPUs for integration: real work        0.165 s, elapsed        0.168 s

  Updating Kohn-Sham eigenvalues and eigenvectors using ELSI and the ELPA eigensolver.
  ELPA settings:
  | ELPA solver          1
  Finished transformation to standard eigenproblem
  | Time :     0.000 s
  Starting ELPA eigensolver
  | Time full => tridiagonal    :     0.000 s
  | Time solve tridiagonal      :     0.000 s
  | Time ev tridiagonal => full :     0.000 s
  Finished solving standard eigenproblem
  | Time :     0.001 s
  Finished back-transformation of eigenvectors
  | Time :     0.000 s

  Obtaining occupation numbers and chemical potential using ELSI.
  | Chemical potential (Fermi level):    -6.37102798eV
  Highest occupied state (VBM) at     -6.37102798 eV
  | Occupation number:      1.00000000

  Lowest unoccupied state (CBM) at    -6.37102798 eV
  | Occupation number:      1.00000000

  Overall HOMO-LUMO gap:      0.00000000 eV.
  This system has fractional occupation numbers. Thus, it is a degenerate system
  within the approximate finite broadening function (occupation_type)
  applied to determine the occupation numbers.
  This may not be harmful. However, for some systems (free atoms), a different, non-degenerate
  ground state might exist by using a smaller broadening (see keyword occupation_type).

  Total energy components:
  | Sum of eigenvalues            :         -82.73164224 Ha       -2251.24252744 eV
  | XC energy correction          :         -16.79593391 Ha        -457.04061578 eV
  | XC potential correction       :          21.58855559 Ha         587.45448705 eV
  | Free-atom electrostatic energy:         -72.18095355 Ha       -1964.14368076 eV
  | Hartree energy correction     :          -0.26483048 Ha          -7.20640396 eV
  | vdW energy correction         :           0.00000000 Ha           0.00000000 eV
  | Entropy correction            :          -0.00020734 Ha          -0.00564190 eV
  | ---------------------------
  | Total energy                  :        -150.38480460 Ha       -4092.17874089 eV
  | Total energy, T -> 0          :        -150.38501193 Ha       -4092.18438278 eV  <-- do not rely on this value for anything but (periodic) metals
  | Electronic free energy        :        -150.38521927 Ha       -4092.19002468 eV

  Derived energy quantities:
  | Kinetic energy                :         150.04387373 Ha        4082.90153985 eV
  | Electrostatic energy          :        -283.63274441 Ha       -7718.03966496 eV
  | Energy correction for multipole
  | error in Hartree potential    :          -0.00080912 Ha          -0.02201724 eV
  | Sum of eigenvalues per atom                           :       -1125.62126372 eV
  | Total energy (T->0) per atom                          :       -2046.09219139 eV  <-- do not rely on this value for anything but (periodic) metals
  | Electronic free energy per atom                       :       -2046.09501234 eV

  Self-consistency convergence accuracy:
  | Change of charge density      :  0.3963E-04
  | Change of sum of eigenvalues  :  0.2146E-03 eV
  | Change of total energy        :  0.1114E-07 eV

  End self-consistency iteration #     9       :  max(cpu_time)    wall_clock(cpu1)
  | Time for this iteration                    :        0.115 s           0.115 s
  | Charge density update                      :        0.038 s           0.038 s
  | Density mixing                             :        0.007 s           0.007 s
  | Hartree multipole update                   :        0.006 s           0.006 s
  | Hartree multipole summation                :        0.021 s           0.021 s
  | Integration                                :        0.042 s           0.042 s
  | Solution of K.-S. eqns.                    :        0.001 s           0.001 s
  | Total energy evaluation                    :        0.000 s           0.000 s

  Partial memory accounting:
  | Current value for overall tracked memory usage on task 0  :           0.085 MB
  | Peak value for overall tracked memory usage on task 0     :           0.507 MB after allocating gradient_basis_wave
  | Largest tracked array allocation on task 0 so far         :           0.316 MB  when allocating gradient_basis_wave
  Note:  These values currently only include a subset of arrays which are explicitly tracked.
  The "true" memory usage will be greater.
------------------------------------------------------------

------------------------------------------------------------
          Begin self-consistency iteration #   10

  Date     :  20200408, Time     :  082014.629
------------------------------------------------------------
  Evaluating new KS density.
  Integration grid: deviation in total charge (<rho> - N_e) =   8.881784E-14
  Pulay mixing of updated and previous charge densities.

  Evaluating partitioned Hartree potential by multipole expansion.
  | Analytical far-field extrapolation by fixed multipoles:
  | Hartree multipole sum: apparent total charge =  -0.602952E-07
  Summing up the Hartree potential.
  Time summed over all CPUs for potential: real work        0.095 s, elapsed        0.132 s
  | RMS charge density error from multipole expansion :   0.175434E-02

  Integrating Hamiltonian matrix: batch-based integration.
  Time summed over all CPUs for integration: real work        0.167 s, elapsed        0.171 s

  Updating Kohn-Sham eigenvalues and eigenvectors using ELSI and the ELPA eigensolver.
  ELPA settings:
  | ELPA solver          1
  Finished transformation to standard eigenproblem
  | Time :     0.000 s
  Starting ELPA eigensolver
  | Time full => tridiagonal    :     0.000 s
  | Time solve tridiagonal      :     0.000 s
  | Time ev tridiagonal => full :     0.000 s
  Finished solving standard eigenproblem
  | Time :     0.001 s
  Finished back-transformation of eigenvectors
  | Time :     0.000 s

  Obtaining occupation numbers and chemical potential using ELSI.
  | Chemical potential (Fermi level):    -6.37103424eV
  Highest occupied state (VBM) at     -6.37103424 eV
  | Occupation number:      1.00000000

  Lowest unoccupied state (CBM) at    -6.37103424 eV
  | Occupation number:      1.00000000

  Overall HOMO-LUMO gap:      0.00000000 eV.
  This system has fractional occupation numbers. Thus, it is a degenerate system
  within the approximate finite broadening function (occupation_type)
  applied to determine the occupation numbers.
  This may not be harmful. However, for some systems (free atoms), a different, non-degenerate
[...]

  Derived energy quantities:
  | Kinetic energy                :         150.20496126 Ha        4087.28495464 eV
  | Electrostatic energy          :        -283.75148276 Ha       -7721.27069978 eV
  | Energy correction for multipole
  | error in Hartree potential    :          -0.00105651 Ha          -0.02874914 eV
  | Sum of eigenvalues per atom                           :       -1126.73720918 eV
  | Total energy (T->0) per atom                          :       -2046.14357849 eV  <-- do not rely on this value for anything but (periodic) metals
  | Electronic free energy per atom                       :       -2046.14639944 eV

  atomic forces [eV/Ang]:
  -----------------------
  atom #    1
   Hellmann-Feynman              : -0.153981E-12  0.113814E-12 -0.153585E+02
   Ionic forces                  :  0.000000E+00  0.000000E+00  0.000000E+00
   Multipole                     : -0.870204E-13  0.642053E-13 -0.714413E-01
   Pulay + GGA                   :  0.804968E-12 -0.318847E-11  0.154303E+02
   Van der Waals                 :  0.000000E+00  0.000000E+00  0.000000E+00
   ----------------------------------------------------------------
   Total forces(   1)            :  0.563967E-12 -0.301046E-11  0.387608E-03
  atom #    2
   Hellmann-Feynman              :  0.322548E-12  0.182238E-12  0.153585E+02
   Ionic forces                  :  0.000000E+00  0.000000E+00  0.000000E+00
   Multipole                     : -0.820947E-15  0.440273E-13  0.714413E-01
   Pulay + GGA                   :  0.360809E-11  0.506745E-11 -0.154303E+02
   Van der Waals                 :  0.000000E+00  0.000000E+00  0.000000E+00
   ----------------------------------------------------------------
   Total forces(   2)            :  0.392981E-11  0.529371E-11 -0.387621E-03


  Self-consistency convergence accuracy:
  | Change of charge density      :  0.1604E-06
  | Change of sum of eigenvalues  :  0.8359E-06 eV
  | Change of total energy        :  0.1547E-10 eV
  | Change of forces              :  0.6231E-06 eV/A

  Writing Kohn-Sham eigenvalues.

  State    Occupation    Eigenvalue [Ha]    Eigenvalue [eV]
      1       2.00000         -18.927835         -515.05260
      2       2.00000         -18.927768         -515.05078
      3       2.00000          -1.185268          -32.25278
      4       2.00000          -0.731442          -19.90355
      5       2.00000          -0.484987          -13.19718
      6       2.00000          -0.465598          -12.66958
      7       2.00000          -0.465598          -12.66958
      8       1.00000          -0.218334           -5.94117
      9       1.00000          -0.218334           -5.94117
     10       0.00000           0.078890            2.14669
     11       0.00000           0.097841            2.66240
     12       0.00000           0.137468            3.74069
     13       0.00000           0.137468            3.74069
     14       0.00000           0.210664            5.73247

  Highest occupied state (VBM) at     -5.94117352 eV
  | Occupation number:      1.00000000

  Lowest unoccupied state (CBM) at    -5.94117352 eV
  | Occupation number:      1.00000000

  Overall HOMO-LUMO gap:      0.00000000 eV.
  This system has fractional occupation numbers. Thus, it is a degenerate system
  within the approximate finite broadening function (occupation_type)
  applied to determine the occupation numbers.
  This may not be harmful. However, for some systems (free atoms), a different, non-degenerate
  ground state might exist by using a smaller broadening (see keyword occupation_type).

  Self-consistency cycle converged.

  End self-consistency iteration #     9       :  max(cpu_time)    wall_clock(cpu1)
  | Time for this iteration                    :        0.381 s           0.381 s
  | Charge density & force component update    :        0.253 s           0.253 s
  | Density mixing                             :        0.006 s           0.006 s
  | Hartree multipole update                   :        0.006 s           0.006 s
  | Hartree multipole summation                :        0.073 s           0.072 s
  | Integration                                :        0.042 s           0.043 s
  | Solution of K.-S. eqns.                    :        0.001 s           0.000 s
  | Total energy evaluation                    :        0.000 s           0.000 s

  Partial memory accounting:
  | Current value for overall tracked memory usage on task 0  :           0.085 MB
  | Peak value for overall tracked memory usage on task 0     :           1.314 MB after allocating hessian_basis_wave
  | Largest tracked array allocation on task 0 so far         :           0.670 MB  when allocating hessian_basis_wave
  Note:  These values currently only include a subset of arrays which are explicitly tracked.
  The "true" memory usage will be greater.
------------------------------------------------------------
  |------------------------------------------
  | Final ELSI Output
  |------------------------------------------
  | Number of basis functions :           78
  | Number of electrons       :         16.0
  | Number of spins           :            1
  | Number of k-points        :            1
  | Number of states          :           14
  | Solver                    :         ELPA
  | Parallel mode             :   MULTI_PROC
  | Matrix format             :  BLACS_DENSE
  | Matrix sparsity           :        0.539
  |------------------------------------------
  | ELSI Project (c)  elsi-interchange.org
  |------------------------------------------
  Obtaining max. number of non-zero basis functions in each batch .
  Evaluating KS electron density on previously omitted grid points.
  Evaluating non-empirical van der Waals correction (Tkatchenko/Scheffler 2009).
  Performing Hirshfeld analysis of fragment charges and moments.
  ----------------------------------------------------------------------
  | Atom     1: O
  |   Hirshfeld charge        :      0.00000368
  |   Free atom volume        :     23.74229847
  |   Hirshfeld volume        :     21.98807105
  |   Hirshfeld dipole vector :      0.00000000      -0.00000000       0.04445320
  |   Hirshfeld dipole moment :      0.04445320
  |   Hirshfeld second moments:      0.04187353      -0.00000000      -0.00000000
  |                                 -0.00000000       0.04187353       0.00000000
  |                                 -0.00000000       0.00000000       0.04896936
  ----------------------------------------------------------------------
  | Atom     2: O
  |   Hirshfeld charge        :      0.00000368
  |   Free atom volume        :     23.74229847
  |   Hirshfeld volume        :     21.98807105
  |   Hirshfeld dipole vector :     -0.00000000       0.00000000      -0.04445320
  |   Hirshfeld dipole moment :      0.04445320
  |   Hirshfeld second moments:      0.04187353      -0.00000000      -0.00000000
  |                                 -0.00000000       0.04187353       0.00000000
  |                                 -0.00000000       0.00000000       0.04896936
  ----------------------------------------------------------------------


  Total energy components:
  | Sum of eigenvalues            :         -82.81366273 Ha       -2253.47441836 eV
  | XC energy correction          :         -16.84205998 Ha        -458.29576995 eV
  | XC potential correction       :          21.65043950 Ha         589.13843381 eV
  | Free-atom electrostatic energy:         -71.99659242 Ha       -1959.12695905 eV
  | Hartree energy correction     :          -0.38670585 Ha         -10.52280155 eV
  | vdW energy correction         :          -0.00000049 Ha          -0.00001331 eV
  | Entropy correction            :          -0.00020734 Ha          -0.00564190 eV
  | ---------------------------
  | Total energy                  :        -150.38858197 Ha       -4092.28152840 eV
  | Total energy, T -> 0          :        -150.38878931 Ha       -4092.28717030 eV  <-- do not rely on this value for anything but (periodic) metals
  | Electronic free energy        :        -150.38899664 Ha       -4092.29281220 eV

  Derived energy quantities:
  | Kinetic energy                :         150.20496126 Ha        4087.28495464 eV
  | Electrostatic energy          :        -283.75148276 Ha       -7721.27069978 eV
  | Energy correction for multipole
  | error in Hartree potential    :          -0.00105651 Ha          -0.02874914 eV
  | Sum of eigenvalues per atom                           :       -1126.73720918 eV
  | Total energy (T->0) per atom                          :       -2046.14358515 eV  <-- do not rely on this value for anything but (periodic) metals
  | Electronic free energy per atom                       :       -2046.14640610 eV

  atomic forces [eV/Ang]:
  -----------------------
  atom #    1
   Hellmann-Feynman              : -0.153981E-12  0.113814E-12 -0.153585E+02
   Ionic forces                  :  0.000000E+00  0.000000E+00  0.000000E+00
   Multipole                     : -0.870204E-13  0.642053E-13 -0.714413E-01
   Pulay + GGA                   :  0.804968E-12 -0.318847E-11  0.154303E+02
   Van der Waals                 :  0.247849E-80 -0.677273E-38 -0.205980E-04
   ----------------------------------------------------------------
   Total forces(   1)            :  0.563967E-12 -0.301046E-11  0.367010E-03
  atom #    2
   Hellmann-Feynman              :  0.322548E-12  0.182238E-12  0.153585E+02
   Ionic forces                  :  0.000000E+00  0.000000E+00  0.000000E+00
   Multipole                     : -0.820947E-15  0.440273E-13  0.714413E-01
   Pulay + GGA                   :  0.360809E-11  0.506745E-11 -0.154303E+02
   Van der Waals                 : -0.247849E-80  0.677273E-38  0.205980E-04
   ----------------------------------------------------------------
   Total forces(   2)            :  0.392981E-11  0.529371E-11 -0.367023E-03

  Timings for VdW correction (Tkatchenko-Scheffler 2009 or later):
  | CPU time:        0.005 s, Wall clock time:        0.005 s.
  Removing unitary transformations (pure translations, rotations) from forces on atoms.
  Atomic forces before filtering:
  | Net force on center of mass :   0.449378E-11  0.228326E-11 -0.131307E-07 eV/A
  | Net torque on center of mass:  -0.506531E-11  0.205307E-11 -0.675062E-45 eV
  Atomic forces after filtering:
  | Net force on center of mass :   0.649038E-27  0.649038E-27  0.000000E+00 eV/A
  | Net torque on center of mass:   0.395894E-27 -0.269376E-79 -0.734382E-77 eV

  Energy and forces in a compact form:
  | Total energy uncorrected      :         -0.409228152840363E+04 eV
  | Total energy corrected        :         -0.409228717029947E+04 eV  <-- do not rely on this value for anything but (periodic) metals
  | Electronic free energy        :         -0.409229281219530E+04 eV
  Total atomic forces (unitary forces cleaned) [eV/Ang]:
  |   1          0.324518849313061E-27          0.649037698626122E-27          0.367016569589688E-03
  |   2          0.324518849313061E-27          0.000000000000000E+00         -0.367016569589688E-03

  ------------------------------------ 
  Start decomposition of the XC Energy 
  ------------------------------------ 
  X and C from original XC functional choice 
  Hartree-Fock Energy :          0.000000000 Ha              0.000000000 eV
  X Energy            :        -16.308588534 Ha           -443.779273243 eV
  C Energy            :         -0.533471448 Ha            -14.516496704 eV
  Total XC Energy     :        -16.842059982 Ha           -458.295769947 eV
  ------------------------------------ 
  LDA X and C from self-consistent density 
  X Energy LDA        :        -14.804349022 Ha           -402.846833519 eV
  C Energy LDA        :         -1.111995234 Ha            -30.258929878 eV
  ------------------------------------ 
  End decomposition of the XC Energy 
  ------------------------------------ 

------------------------------------------------------------
  Relaxation / MD: End force evaluation.       :  max(cpu_time)    wall_clock(cpu1)
  | Time for this force evaluation             :        1.377 s           1.377 s

------------------------------------------------------------
  Geometry optimization: Attempting to predict improved coordinates.

  Removing unitary transformations (pure translations, rotations) from forces on atoms.
  Atomic forces before filtering:
  | Net force on center of mass :   0.649038E-27  0.649038E-27  0.000000E+00 eV/A
  | Net torque on center of mass:   0.395894E-27 -0.269376E-79 -0.734382E-77 eV
  Atomic forces after filtering:
  | Net force on center of mass :   0.720577E-43  0.144115E-42  0.000000E+00 eV/A
  | Net torque on center of mass:  -0.409715E-43 -0.269376E-79 -0.815327E-93 eV
  Net remaining forces (excluding translations, rotations) in present geometry:
  Maximum force component is  0.367017E-03 eV/A.
  Present geometry is converged.

------------------------------------------------------------
  Final atomic structure:
                         x [A]             y [A]             z [A]
            atom         0.00000000        0.00000000        0.02902858  O
            atom        -0.00000000        0.00000000        1.24897142  O
------------------------------------------------------------

------------------------------------------------------------------------------
  Final output of selected total energy values:

  The following output summarizes some interesting total energy values
  at the end of a run (AFTER all relaxation, molecular dynamics, etc.).

  | Total energy of the DFT / Hartree-Fock s.c.f. calculation      :          -4092.281528404 eV
  | Final zero-broadening corrected energy (caution - metals only) :          -4092.287170299 eV
  | For reference only, the value of 1 Hartree used in FHI-aims is :             27.211384500 eV

  Before relying on these values, please be sure to understand exactly which
  total energy value is referred to by a given number. Different objects may
  all carry the same name 'total energy'. Definitions:

  Total energy of the DFT / Hartree-Fock s.c.f. calculation:
  | Note that this energy does not include ANY quantities calculated after the
  | s.c.f. cycle, in particular not ANY RPA, MP2, etc. many-body perturbation terms.

  Final zero-broadening corrected energy:
  | For metallic systems only, a broadening of the occupation numbers at the Fermi
  | level can be extrapolated back to zero broadening by an electron-gas inspired
  | formula. For all systems that are not real metals, this value can be
  | meaningless and should be avoided.

------------------------------------------------------------------------------
  Methods described in the following list of references were used in this FHI-aims run.
  If you publish the results, please make sure to cite these reference if they apply.
  FHI-aims is an academic code, and for our developers (often, Ph.D. students
  and postdocs), scientific credit in the community is essential.
  Thank you for helping us!

  For any use of FHI-aims, please cite:

    Volker Blum, Ralf Gehrke, Felix Hanke, Paula Havu, Ville Havu,
    Xinguo Ren, Karsten Reuter, and Matthias Scheffler
    'Ab initio molecular simulations with numeric atom-centered orbitals'
    Computer Physics Communications 180, 2175-2196 (2009)
    http://dx.doi.org/10.1016/j.cpc.2009.06.022


  The scalable eigensolver library ELPA was used in your run.
  ELPA is essential especially for large systems on hundreds or thousands of CPUs.
  For ELPA, please cite:

    Andreas Marek, Volker Blum, Rainer Johanni, Ville Havu, Bruno Lang,
    Thomas Auckenthaler, Alexander Heinecke, Hans-Joachim Bungartz, and Hermann Lederer,
    'The ELPA Library - Scalable Parallel Eigenvalue Solutions
    for Electronic Structure Theory and Computational Science'
    The Journal of Physics: Condensed Matter 26, 213201 (2014).
    http://dx.doi.org/10.1088/0953-8984/26/21/213201


  The ELSI infrastructure was used in your run to solve the Kohn-Sham electronic structure.
  Please check out http://elsi-interchange.org to learn more.
  If scalability is important for your project, please acknowledge ELSI by citing:

    V. W-z. Yu, F. Corsetti, A. Garcia, W. P. Huhn, M. Jacquelin, W. Jia,
    B. Lange, L. Lin, J. Lu, W. Mi, A. Seifitokaldani, A. Vazquez-Mayagoitia,
    C. Yang, H. Yang, and V. Blum
    'ELSI: A unified software interface for Kohn-Sham electronic structure solvers'
    Computer Physics Communications 222, 267-285 (2018).
    http://dx.doi.org/10.1016/j.cpc.2017.09.007


  For the real-space grid partitioning and parallelization used in this calculation, please cite:

    Ville Havu, Volker Blum, Paula Havu, and Matthias Scheffler,
    'Efficient O(N) integration for all-electron electronic structure calculation'
    'using numerically tabulated basis functions'
    Journal of Computational Physics 228, 8367-8379 (2009).
    http://dx.doi.org/10.1016/j.jcp.2009.08.008

  Of course, there are many other important community references, e.g., those cited in the
  above references. Our list is limited to references that describe implementations in the
  FHI-aims code. The reason is purely practical (length of this list) - please credit others as well.

------------------------------------------------------------
          Leaving FHI-aims.
          Date     :  20200408, Time     :  082023.718

          Computational steps:
          | Number of self-consistency cycles          :           57
          | Number of SCF (re)initializations          :            5
          | Number of relaxation steps                 :            4

          Detailed time accounting                     :  max(cpu_time)    wall_clock(cpu1)
          | Total time                                 :       10.319 s          10.773 s
          | Preparation time                           :        0.117 s           0.122 s
          | Boundary condition initalization           :        0.000 s           0.001 s
          | Grid partitioning                          :        0.085 s           0.086 s
          | Preloading free-atom quantities on grid    :        0.036 s           0.036 s
          | Free-atom superposition energy             :        0.022 s           0.022 s
          | Total time for integrations                :        2.789 s           2.790 s
          | Total time for solution of K.-S. equations :        0.056 s           0.055 s
          | Total time for EV reorthonormalization     :        0.001 s           0.001 s
          | Total time for density & force components  :        4.072 s           4.066 s
          | Total time for mixing                      :        0.255 s           0.255 s
          | Total time for Hartree multipole update    :        0.360 s           0.361 s
          | Total time for Hartree multipole sum       :        2.024 s           2.028 s
          | Total time for total energy evaluation     :        0.003 s           0.006 s
          | Total time for scaled ZORA corrections     :        0.000 s           0.000 s
          | Total time for vdW correction              :        0.029 s           0.032 s

          Partial memory accounting:
          | Residual value for overall tracked memory usage across tasks :           0.000 MB (should be 0.000 MB)
          | Peak values for overall tracked memory usage (after allocating hessian_basis_wave):
          |   Minimum:        1.288 MB (on task 4)
          |   Maximum:        1.314 MB (on task 1)
          |   Average:        1.300 MB
          | Largest tracked array allocation (hessian_basis_wave):
          |   Minimum:        0.670 MB (on task 1)
          |   Maximum:        0.670 MB (on task 1)
          |   Average:        0.670 MB
          Note:  These values currently only include a subset of arrays which are explicitly tracked.
          The "true" memory usage will be greater.

          Have a nice day.
------------------------------------------------------------
