  MPI-parallelism will be employed.
------------------------------------------------------------
          Invoking FHI-aims ...
          Version 170329
          Git rev.: 67224d2 PGI compatibility fixes.
          Compiled on 2017/04/04 at 21:21:26 on host access.grid.unesp.br.

          When using FHI-aims, please cite the following reference:

          Volker Blum, Ralf Gehrke, Felix Hanke, Paula Havu,
          Ville Havu, Xinguo Ren, Karsten Reuter, and Matthias Scheffler,
          'Ab Initio Molecular Simulations with Numeric Atom-Centered Orbitals',
          Computer Physics Communications 180, 2175-2196 (2009)

          For any questions about FHI-aims, please visit the aimsclub website
          with its forums and wiki. Contributions to both the forums and the
          wiki are warmly encouraged - they are for you, and everyone is welcome there.

------------------------------------------------------------



  Date     :  20200401, Time     :  184226.372
  Time zero on CPU 1             :   0.222224000000000E+00  s.
  Internal wall clock time zero  :           354998546.372  s.

  FHI-aims created a unique identifier for this run for later identification
  aims_uuid : E4FDCE63-F4B0-4388-A6F9-5C6054C546B5

  Using      300 parallel tasks.
  Task        0 on host node004 reporting.
  Task        1 on host node004 reporting.
  Task        2 on host node004 reporting.
  Task        3 on host node004 reporting.
  Task        4 on host node004 reporting.
  Task        5 on host node004 reporting.
  Task        6 on host node005 reporting.
  Task        7 on host node005 reporting.
  Task        8 on host node006 reporting.
  Task        9 on host node006 reporting.
  Task       10 on host node006 reporting.
  Task       11 on host node006 reporting.
  Task       12 on host node006 reporting.
  Task       13 on host node006 reporting.
  Task       14 on host node006 reporting.
  Task       15 on host node006 reporting.
  Task       16 on host node006 reporting.
  Task       17 on host node006 reporting.
  Task       18 on host node006 reporting.
  Task       19 on host node006 reporting.
  Task       20 on host node006 reporting.
  Task       21 on host node006 reporting.
  Task       22 on host node006 reporting.
  Task       23 on host node006 reporting.
  Task       24 on host node006 reporting.
  Task       25 on host node006 reporting.
  Task       26 on host node006 reporting.
  Task       27 on host node006 reporting.
  Task       28 on host node006 reporting.
  Task       29 on host node006 reporting.
  Task       30 on host node006 reporting.
  Task       31 on host node006 reporting.
  Task       32 on host node006 reporting.
  Task       33 on host node006 reporting.
  Task       34 on host node006 reporting.
  Task       35 on host node006 reporting.
  Task       36 on host node006 reporting.
  Task       37 on host node006 reporting.
  Task       38 on host node011 reporting.
  Task       39 on host node011 reporting.
  Task       40 on host node011 reporting.
  Task       41 on host node011 reporting.
  Task       42 on host node011 reporting.
  Task       43 on host node011 reporting.
  Task       44 on host node011 reporting.
  Task       45 on host node011 reporting.
  Task       46 on host node012 reporting.
  Task       47 on host node012 reporting.
  Task       48 on host node012 reporting.
  Task       49 on host node012 reporting.
  Task       50 on host node013 reporting.
  Task       51 on host node013 reporting.
  Task       52 on host node013 reporting.
  Task       53 on host node013 reporting.
  Task       54 on host node013 reporting.
  Task       55 on host node013 reporting.
  Task       56 on host node013 reporting.
  Task       57 on host node013 reporting.
  Task       58 on host node013 reporting.
  Task       59 on host node013 reporting.
  Task       60 on host node013 reporting.
  Task       61 on host node013 reporting.
  Task       62 on host node013 reporting.
  Task       63 on host node013 reporting.
  Task       64 on host node013 reporting.
  Task       65 on host node013 reporting.
  Task       66 on host node020 reporting.
  Task       67 on host node020 reporting.
  Task       68 on host node020 reporting.
  Task       69 on host node020 reporting.
  Task       70 on host node020 reporting.
  Task       71 on host node020 reporting.
  Task       72 on host node020 reporting.
  Task       73 on host node020 reporting.
  Task       74 on host node020 reporting.
  Task       75 on host node020 reporting.
  Task       76 on host node021 reporting.
  Task       77 on host node021 reporting.
  Task       78 on host node021 reporting.
  Task       79 on host node021 reporting.
  Task       80 on host node021 reporting.
  Task       81 on host node021 reporting.
  Task       82 on host node021 reporting.
  Task       83 on host node021 reporting.
  Task       84 on host node022 reporting.
  Task       85 on host node022 reporting.
  Task       86 on host node029 reporting.
  Task       87 on host node029 reporting.
  Task       88 on host node029 reporting.
  Task       89 on host node029 reporting.
  Task       90 on host node029 reporting.
  Task       91 on host node029 reporting.
  Task       92 on host node036 reporting.
  Task       93 on host node036 reporting.
  Task       94 on host node036 reporting.
  Task       95 on host node036 reporting.
  Task       96 on host node036 reporting.
  Task       97 on host node036 reporting.
  Task       98 on host node036 reporting.
  Task       99 on host node036 reporting.
  Task      100 on host node036 reporting.
  Task      101 on host node036 reporting.
  Task      102 on host node036 reporting.
  Task      103 on host node036 reporting.
  Task      104 on host node036 reporting.
  Task      105 on host node036 reporting.
  Task      106 on host node036 reporting.
  Task      107 on host node036 reporting.
  Task      108 on host node036 reporting.
  Task      109 on host node036 reporting.
  Task      110 on host node036 reporting.
  Task      111 on host node036 reporting.
  Task      112 on host node036 reporting.
  Task      113 on host node036 reporting.
  Task      114 on host node036 reporting.
  Task      115 on host node036 reporting.
  Task      116 on host node036 reporting.
  Task      117 on host node036 reporting.
  Task      118 on host node036 reporting.
  Task      119 on host node036 reporting.
  Task      120 on host node036 reporting.
  Task      121 on host node036 reporting.
  Task      122 on host node036 reporting.
  Task      123 on host node036 reporting.
  Task      124 on host node036 reporting.
  Task      125 on host node036 reporting.
  Task      126 on host node036 reporting.
  Task      127 on host node036 reporting.
  Task      128 on host node036 reporting.
  Task      129 on host node036 reporting.
  Task      130 on host node036 reporting.
  Task      131 on host node036 reporting.
  Task      132 on host node036 reporting.
  Task      133 on host node036 reporting.
  Task      134 on host node036 reporting.
  Task      135 on host node036 reporting.
  Task      136 on host node036 reporting.
  Task      137 on host node036 reporting.
  Task      138 on host node036 reporting.
  Task      139 on host node036 reporting.
  Task      140 on host node037 reporting.
  Task      141 on host node037 reporting.
  Task      142 on host node037 reporting.
  Task      143 on host node037 reporting.
  Task      144 on host node037 reporting.
  Task      145 on host node037 reporting.
  Task      146 on host node037 reporting.
  Task      147 on host node037 reporting.
  Task      148 on host node038 reporting.
  Task      149 on host node038 reporting.
  Task      150 on host node038 reporting.
  Task      151 on host node038 reporting.
  Task      152 on host node038 reporting.
  Task      153 on host node038 reporting.
  Task      154 on host node038 reporting.
  Task      155 on host node038 reporting.
  Task      156 on host node038 reporting.
  Task      157 on host node038 reporting.
  Task      158 on host node038 reporting.
  Task      159 on host node038 reporting.
  Task      160 on host node038 reporting.
  Task      161 on host node038 reporting.
  Task      162 on host node038 reporting.
  Task      163 on host node038 reporting.
  Task      164 on host node038 reporting.
  Task      165 on host node038 reporting.
  Task      166 on host node038 reporting.
  Task      167 on host node038 reporting.
  Task      168 on host node038 reporting.
  Task      169 on host node038 reporting.
  Task      170 on host node038 reporting.
  Task      171 on host node038 reporting.
  Task      172 on host node038 reporting.
  Task      173 on host node038 reporting.
  Task      174 on host node039 reporting.
  Task      175 on host node039 reporting.
  Task      176 on host node048 reporting.
  Task      177 on host node048 reporting.
  Task      178 on host node048 reporting.
  Task      179 on host node048 reporting.
  Task      180 on host node048 reporting.
  Task      181 on host node048 reporting.
  Task      182 on host node048 reporting.
  Task      183 on host node048 reporting.
  Task      184 on host node048 reporting.
  Task      185 on host node048 reporting.
  Task      186 on host node049 reporting.
  Task      187 on host node049 reporting.
  Task      188 on host node049 reporting.
  Task      189 on host node049 reporting.
  Task      190 on host node049 reporting.
  Task      191 on host node049 reporting.
  Task      192 on host node049 reporting.
  Task      193 on host node049 reporting.
  Task      194 on host node049 reporting.
  Task      195 on host node049 reporting.
  Task      196 on host node049 reporting.
  Task      197 on host node049 reporting.
  Task      198 on host node049 reporting.
  Task      199 on host node049 reporting.
  Task      200 on host node049 reporting.
  Task      201 on host node049 reporting.
  Task      202 on host node049 reporting.
  Task      203 on host node049 reporting.
  Task      204 on host node049 reporting.
  Task      205 on host node049 reporting.
  Task      206 on host node049 reporting.
  Task      207 on host node049 reporting.
  Task      208 on host node049 reporting.
  Task      209 on host node049 reporting.
  Task      210 on host node049 reporting.
  Task      211 on host node049 reporting.
  Task      212 on host node049 reporting.
  Task      213 on host node049 reporting.
  Task      214 on host node049 reporting.
  Task      215 on host node049 reporting.
  Task      216 on host node049 reporting.
  Task      217 on host node049 reporting.
  Task      218 on host node050 reporting.
  Task      219 on host node050 reporting.
  Task      220 on host node050 reporting.
  Task      221 on host node050 reporting.
  Task      222 on host node050 reporting.
  Task      223 on host node050 reporting.
  Task      224 on host node050 reporting.
  Task      225 on host node050 reporting.
  Task      226 on host node050 reporting.
  Task      227 on host node050 reporting.
  Task      228 on host node050 reporting.
  Task      229 on host node050 reporting.
  Task      230 on host node051 reporting.
  Task      231 on host node051 reporting.
  Task      232 on host node051 reporting.
  Task      233 on host node051 reporting.
  Task      234 on host node051 reporting.
  Task      235 on host node051 reporting.
  Task      236 on host node051 reporting.
  Task      237 on host node051 reporting.
  Task      238 on host node051 reporting.
  Task      239 on host node051 reporting.
  Task      240 on host node051 reporting.
  Task      241 on host node051 reporting.
  Task      242 on host node051 reporting.
  Task      243 on host node051 reporting.
  Task      244 on host node051 reporting.
  Task      245 on host node051 reporting.
  Task      246 on host node051 reporting.
  Task      247 on host node051 reporting.
  Task      248 on host node051 reporting.
  Task      249 on host node051 reporting.
  Task      250 on host node051 reporting.
  Task      251 on host node051 reporting.
  Task      252 on host node051 reporting.
  Task      253 on host node051 reporting.
  Task      254 on host node051 reporting.
  Task      255 on host node051 reporting.
  Task      256 on host node051 reporting.
  Task      257 on host node051 reporting.
  Task      258 on host node051 reporting.
  Task      259 on host node051 reporting.
  Task      260 on host node051 reporting.
  Task      261 on host node051 reporting.
  Task      262 on host node052 reporting.
  Task      263 on host node052 reporting.
  Task      264 on host node052 reporting.
  Task      265 on host node052 reporting.
  Task      266 on host node052 reporting.
  Task      267 on host node052 reporting.
  Task      268 on host node052 reporting.
  Task      269 on host node052 reporting.
  Task      270 on host node053 reporting.
  Task      271 on host node053 reporting.
  Task      272 on host node053 reporting.
  Task      273 on host node053 reporting.
  Task      274 on host node053 reporting.
  Task      275 on host node053 reporting.
  Task      276 on host node053 reporting.
  Task      277 on host node053 reporting.
  Task      278 on host node053 reporting.
  Task      279 on host node053 reporting.
  Task      280 on host node053 reporting.
  Task      281 on host node053 reporting.
  Task      282 on host node053 reporting.
  Task      283 on host node053 reporting.
  Task      284 on host node053 reporting.
  Task      285 on host node053 reporting.
  Task      286 on host node053 reporting.
  Task      287 on host node053 reporting.
  Task      288 on host node053 reporting.
  Task      289 on host node053 reporting.
  Task      290 on host node053 reporting.
  Task      291 on host node053 reporting.
  Task      292 on host node054 reporting.
  Task      293 on host node054 reporting.
  Task      294 on host node054 reporting.
  Task      295 on host node054 reporting.
  Task      296 on host node054 reporting.
  Task      297 on host node054 reporting.
  Task      298 on host node054 reporting.
  Task      299 on host node054 reporting.

  Performing system and environment tests:
  *** Environment variable OMP_NUM_THREADS is not set
  *** For performance reasons you might want to set it to 1
  | Stacksize not measured: no C compiler
  | Checking for scalapack...
  | Testing pdtran()...
  | All pdtran() tests passed.

  Obtaining array dimensions for all initial allocations:
  
  -----------------------------------------------------------------------
  Parsing control.in (first pass over file, find array dimensions only).
  The contents of control.in will be repeated verbatim below
  unless switched off by setting 'verbatim_writeout .false.' .
  in the first line of control.in .
  -----------------------------------------------------------------------
  
  #
   xc pbe
   vdw_correction_hirshfeld
   relativistic atomic_zora scalar
  #
   occupation_type gaussian 0.01
   n_max_pulay 8
   charge_mix_param 0.2
   sc_accuracy_rho 1e-6
   sc_accuracy_eev 1e-4
  #
   relax_geometry bfgs 5e-4
   relax_unit_cell full
  #
  use_dipole_correction
  #
  sc_accuracy_forces 1e-5
  sc_accuracy_stress 1e-5
  #
    k_grid 2 2 2
  #
     output species_proj_dos -10 10 1000 0.1
     output dos              -10 10 1000 0.1
     dos_kgrid_factors  2 2 2
  #
  output band   0.000  0.000  0.000   0.500  0.000  0.000   21	  Gamma      X
  output band   0.500  0.000  0.000   0.500  0.500  0.000   21	  X	 S
  output band   0.500  0.500  0.000   0.000  0.000  0.000   21	  S	 Gamma
  output band   0.000  0.000  0.000   0.000  0.500  0.000   21	  Gamma  Y
  
  ################################################################################
  #
  #  FHI-aims code project
  # Volker Blum, Fritz Haber Institute Berlin, 2009
  #
  #  Suggested "tight" defaults for Mo atom (to be pasted into control.in file)
  #
  ################################################################################
    species        Mo
  #     global species definitions
      nucleus             42
      mass                95.94
  #
      l_hartree           6
  #
      cut_pot             4.0  2.0  1.0
      basis_dep_cutoff    1e-4
  #
      radial_base         59 7.0
      radial_multiplier   2
      angular_grids specified
        division   0.3117   50
        division   0.6750  110
        division   1.0351  194
        division   1.2073  302
        division   1.6402  434
  #      division   1.9185  590
  #      division   2.0237  770
  #      division   2.0980  974
  #      division   2.7972 1202
  #      outer_grid  974
        outer_grid  434
  ################################################################################
  #
  #  Definition of "minimal" basis
  #
  ################################################################################
  #     valence basis states
      valence      5  s   1.
      valence      4  p   6.
      valence      4  d   5.
  #     ion occupancy
      ion_occ     5  s   0.
      ion_occ     4  p   6.
      ion_occ     4  d   4.
  ################################################################################
  #
  #  Suggested additional basis functions. For production calculations,
  #  uncomment them one after another (the most important basis functions are
  #  listed first).
  #
  #  Constructed for dimers: 1.675 A, 1.9 A, 2.375 A, 3.00 A, 4.00 A
  #
  ################################################################################
  #  "First tier"  - max. impr. -711.23  meV, min. impr. -21.07 meV
       hydro 4 f 8.4
       hydro 3 d 2.8
       ionic 5 p auto
       hydro 5 g 12
       ionic 5 s auto
  #  "Second tier" - max. impr. -39.38  meV, min. impr. -2.68 meV
  #     hydro 4 f 12.4
  #     hydro 3 d 3.3
  #     hydro 6 h 17.2
  #     hydro 4 f 7.6
  #     hydro 3 p 3.0
  #     hydro 1 s 0.65
  #  "Third tier"  - max. impr. -5.50 meV, min. impr. -0.47 meV
  #     hydro 4 f 29.2
  #     hydro 5 g 11.2
  #     hydro 3 d 6.8
  #     hydro 6 h 14.8
  #     hydro 2 p 2.3
  #     hydro 4 s 3.8
  #  "Fourth tier"  - max. impr. -0.58 meV, min. impr. -0.19 meV
  #     hydro 5 f 6.8
  #     hydro 5 d 14.8
  #     hydro 6 s 7.8
  #     hydro 5 g 20.8
  #     hydro 5 d 10.4
  #     hydro 5 p 9.8
  #  Further functions - -0.17 meV and below
  #     hydro 5 d 3.2
  ################################################################################
  #
  #  FHI-aims code project
  # Volker Blum, Fritz Haber Institute Berlin, 2009
  #
  #  Suggested "tight" defaults for S atom (to be pasted into control.in file)
  #
  #  Revised Jan 04, 2011, following tests (SiC) done by Lydia Nemec:
  #     d and g functions of tier 2 now enabled by default.
  #
  ################################################################################
    species        S
  #     global species definitions
      nucleus             16
      mass                32.065
  #
      l_hartree           6
  #
      cut_pot             4.0          2.0  1.0
      basis_dep_cutoff    1e-4
  #
      radial_base         44 7.0
      radial_multiplier   2
      angular_grids       specified
        division   0.4665  110
        division   0.5810  194
        division   0.7139  302
        division   0.8274  434
  #      division   0.9105  590
  #      division   1.0975  770
  #      division   1.2028  974
  #      outer_grid  974
        outer_grid  434
  ################################################################################
  #
  #  Definition of "minimal" basis
  #
  ################################################################################
  #     valence basis states
      valence      3  s   2.
      valence      3  p   4.
  #     ion occupancy
      ion_occ      3  s   1.
      ion_occ      3  p   3.
  ################################################################################
  #
  #  Suggested additional basis functions. For production calculations,
  #  uncomment them one after another (the most important basis functions are
  #  listed first).
  #
  #  Constructed for dimers: 1.6 A, 1.9 A, 2.5 A, 3.25 A, 4.0 A
  #
  ################################################################################
  #  "First tier" - improvements: -652.81 meV to -45.53 meV
       ionic 3 d auto
       hydro 2 p 1.8
       hydro 4 f 7
       ionic 3 s auto
  #  "Second tier" - improvements: -30.20 meV to -1.74 meV
       hydro 4 d 6.2
       hydro 5 g 10.8
  #     hydro 4 p 4.9
  #     hydro 5 f 10
  #     hydro 1 s 0.8
  #  "Third tier" - improvements: -1.04 meV to -0.20 meV
  #     hydro 3 d 3.9
  #     hydro 3 d 2.7
  #     hydro 5 g 12
  #     hydro 4 p 10.4
  #     hydro 5 f 12.4
  #     hydro 2 s 1.9
  #  "Fourth tier" - improvements: -0.35 meV to -0.06 meV
  #     hydro 4 d 10.4
  #     hydro 4 p 7.2
  #     hydro 4 d 10
  #     hydro 5 g 19.2
  #     hydro 4 s 12
  
  ################################################################################
  #
  # For methods that use the localized form of the "resolution of identity" for
  # the two-electron Coulomb operator (RI_method LVL), particularly Hartree-Fock and
  # hybrid density functional calculations, the highest accuracy can be obtained by
  # uncommenting the line beginning with "for_aux"  below, thus adding an extra g radial
  # function to the construction of the product basis set for the expansion.
  # See Ref. New J. Phys. 17, 093020 (2015) for more information, particularly Figs. 1 and 6.
  #
  ################################################################################
  #
  # for_aux hydro 5 g 6.0
  ################################################################################
  #
  #  FHI-aims code project
  # Volker Blum, Fritz Haber Institute Berlin, 2009
  #
  #  Suggested "tight" defaults for O atom (to be pasted into control.in file)
  #
  ################################################################################
    species        O
  #     global species definitions
      nucleus             8
      mass                15.9994
  #
      l_hartree           6
  #
      cut_pot             4.0  2.0  1.0
      basis_dep_cutoff    1e-4
  #
      radial_base         36 7.0
      radial_multiplier   2
       angular_grids specified
        division   0.1817   50
        division   0.3417  110
        division   0.4949  194
        division   0.6251  302
        division   0.8014  434
  #      division   0.8507  590
  #      division   0.8762  770
  #      division   0.9023  974
  #      division   1.2339 1202
  #      outer_grid 974
        outer_grid  434
  ################################################################################
  #
  #  Definition of "minimal" basis
  #
  ################################################################################
  #     valence basis states
      valence      2  s   2.
      valence      2  p   4.
  #     ion occupancy
      ion_occ      2  s   1.
      ion_occ      2  p   3.
  ################################################################################
  #
  #  Suggested additional basis functions. For production calculations,
  #  uncomment them one after another (the most important basis functions are
  #  listed first).
  #
  #  Constructed for dimers: 1.0 A, 1.208 A, 1.5 A, 2.0 A, 3.0 A
  #
  ################################################################################
  #  "First tier" - improvements: -699.05 meV to -159.38 meV
       hydro 2 p 1.8
       hydro 3 d 7.6
       hydro 3 s 6.4
  #  "Second tier" - improvements: -49.91 meV to -5.39 meV
       hydro 4 f 11.6
       hydro 3 p 6.2
       hydro 3 d 5.6
       hydro 5 g 17.6
       hydro 1 s 0.75
  #  "Third tier" - improvements: -2.83 meV to -0.50 meV
  #     ionic 2 p auto
  #     hydro 4 f 10.8
  #     hydro 4 d 4.7
  #     hydro 2 s 6.8
  #  "Fourth tier" - improvements: -0.40 meV to -0.12 meV
  #     hydro 3 p 5
  #     hydro 3 s 3.3
  #     hydro 5 g 15.6
  #     hydro 4 f 17.6
  #     hydro 4 d 14
  # Further basis functions - -0.08 meV and below
  #     hydro 3 s 2.1
  #     hydro 4 d 11.6
  #     hydro 3 p 16
  #     hydro 2 s 17.2
  
  -----------------------------------------------------------------------
  Completed first pass over input file control.in .
  -----------------------------------------------------------------------
  
  
  -----------------------------------------------------------------------
  Parsing geometry.in (first pass over file, find array dimensions only).
  The contents of geometry.in will be repeated verbatim below
  unless switched off by setting 'verbatim_writeout .false.' .
  in the first line of geometry.in .
  -----------------------------------------------------------------------
  
  #
  # This is the geometry file that corresponds to the current relaxation step.
  # If you do not want this file to be written, set the "write_restart_geometry" flag to .false.
  #  aims_uuid : 15897C39-F367-4645-A1ED-E475084E9970
  #
    set_vacuum_level        26.884190
  lattice_vector     18.97772551      0.00000000      0.00000000
    constrain_relaxation y
    constrain_relaxation z
  lattice_vector      0.00000000     21.91324749      0.00000000
    constrain_relaxation x
    constrain_relaxation z
  lattice_vector      0.00000000      0.00000000     30.00000000
    constrain_relaxation .true.
  atom       0.81821163      1.73419676     11.20012651 Mo
  atom       3.98058500      1.73381933     11.19979016 Mo
  atom       2.39964238      2.64845333     12.76781326 S
  atom       2.39923582      2.64571495      9.63065744 S
  atom       2.39948174      4.47296742     11.19739333 Mo
  atom       0.81821074      5.38712364     12.76531706 S
  atom       0.81821605      5.38495751      9.62841294 S
  atom       7.14385758      1.73349716     11.19909303 Mo
  atom       5.56247764      2.64778965     12.76712685 S
  atom       5.56157386      2.64454659      9.63010251 S
  atom       8.72566470      2.64760689     12.76688204 S
  atom       8.72506228      2.64410016      9.62923479 S
  atom       5.56150648      4.47193561     11.19647485 Mo
  atom       3.98125912      5.38762586     12.76446409 S
  atom       3.97996471      5.38427094      9.62731395 S
  atom       8.72442700      4.47093089     11.19567749 Mo
  atom       7.14348548      5.38629754     12.76301707 S
  atom       7.14201033      5.37977455      9.62544151 S
  atom       0.81821512      7.21215949     11.19556714 Mo
  atom       3.98041360      7.21187746     11.19377530 Mo
  atom       2.40026826      8.12497783     12.76356068 S
  atom       2.39852854      8.12519702      9.62639381 S
  atom       2.39866604      9.95134531     11.19555752 Mo
  atom       0.81820905     10.86377404     12.76521758 S
  atom       0.81821712     10.86634936      9.62819728 S
  atom       7.14565424      7.20799359     11.18924863 Mo
  atom       5.56352944      8.12596135     12.75830629 S
  atom       5.56056978      8.12425742      9.62391313 S
  atom       8.72375805      8.12422009     12.75614652 S
  atom       8.72311545      8.10545332      9.60907371 S
  atom       5.55977187      9.95523680     11.18935950 Mo
  atom       3.98075719     10.86388088     12.76299457 S
  atom       3.97539908     10.86677380      9.62534843 S
  atom       8.69625480      9.93474323     11.17200264 Mo
  atom       7.14222110     10.86350612     12.75647669 S
  atom       7.12559073     10.87307653      9.60936766 S
  atom      10.30707509      1.73363886     11.19864283 Mo
  atom      13.47028786      1.73349699     11.19908714 Mo
  atom      11.88848494      2.64761054     12.76687679 S
  atom      11.88908170      2.64410108      9.62923140 S
  atom      11.88971982      4.47092980     11.19567115 Mo
  atom      10.30707619      5.38829082     12.76097629 S
  atom      10.30707037      5.37950650      9.62575492 S
  atom      16.63356639      1.73381637     11.19978431 Mo
  atom      15.05166912      2.64779284     12.76712207 S
  atom      15.05257257      2.64454411      9.63009088 S
  atom      18.21450327      2.64845833     12.76780451 S
  atom      18.21491584      2.64571745      9.63065757 S
  atom      15.05264397      4.47193420     11.19646268 Mo
  atom      13.47067002      5.38629935     12.76300524 S
  atom      13.47213982      5.37977114      9.62543136 S
  atom      18.21466371      4.47297230     11.19738801 Mo
  atom      16.63288297      5.38762671     12.76445541 S
  atom      16.63418320      5.38426690      9.62730077 S
  atom      10.30707566      7.21072336     11.18747554 Mo
  atom      13.46849381      7.20799482     11.18923389 Mo
  atom      11.89040050      8.12422256     12.75614234 S
  atom      11.89102930      8.10545271      9.60906020 S
  atom      11.91788984      9.93473917     11.17199310 Mo
  atom      10.30707801     10.86451965     12.66230932 S
  atom      10.30706858     10.86509900      9.63384212 S
  atom      16.63374275      7.21187939     11.19376063 Mo
  atom      15.05061994      8.12596115     12.75828624 S
  atom      15.05358006      8.12425372      9.62390014 S
  atom      18.21387716      8.12498218     12.76355295 S
  atom      18.21562933      8.12519975      9.62638518 S
  atom      15.05438275      9.95523495     11.18934080 Mo
  atom      13.47193576     10.86350486     12.75645724 S
  atom      13.48856009     10.87307683      9.60935699 S
  atom      18.21548030      9.95135028     11.19554795 Mo
  atom      16.63338716     10.86387857     12.76298492 S
  atom      16.63875351     10.86677138      9.62532952 S
  atom       0.81821493     12.69158415     11.19842779 Mo
  atom       3.97881476     12.69125130     11.19624215 Mo
  atom       2.39994351     13.60339686     12.76745744 S
  atom       2.39778555     13.60629013      9.62968567 S
  atom       2.39933531     15.43074169     11.20012881 Mo
  atom       0.81821094     16.34290652     12.76936590 S
  atom       0.81821580     16.34475038      9.63237348 S
  atom       7.14271588     12.69186407     11.18827232 Mo
  atom       5.56437626     13.60273430     12.76196391 S
  atom       5.55701625     13.60797621      9.62672039 S
  atom       8.72552216     13.60592999     12.75710079 S
  atom       8.70939648     13.61671312      9.61000209 S
  atom       5.56118471     15.43245767     11.19714200 Mo
  atom       3.98149751     16.34294515     12.76852036 S
  atom       3.97874091     16.34558576      9.63080692 S
  atom       8.72098841     15.43114944     11.19067833 Mo
  atom       7.14438342     16.34369519     12.76457959 S
  atom       7.13949454     16.34850255      9.62696746 S
  atom       0.81821082     18.16982123     11.20170402 Mo
  atom       3.98046342     18.16998001     11.20080905 Mo
  atom       2.39978020     19.08260999     12.77017626 S
  atom       2.39891447     19.08299852      9.63289081 S
  atom       2.39945495     20.90855657     11.20148866 Mo
  atom       0.81821009     21.82227399     12.76975129 S
  atom       0.81821253     21.82086400      9.63266027 S
  atom       7.14341345     18.17096735     11.19812037 Mo
  atom       5.56301796     19.08262404     12.76851807 S
  atom       5.56061736     19.08400627      9.63143903 S
  atom       8.72638786     19.08168983     12.76628920 S
  atom       8.72468680     19.08414651      9.62909442 S
  atom       5.56214776     20.90887763     11.20042729 Mo
  atom       3.98119461     21.82204012     12.76936179 S
  atom       3.98019140     21.82086122      9.63211681 S
  atom       8.72540020     20.90853485     11.19893213 Mo
  atom       7.14450145     21.82149866     12.76824730 S
  atom       7.14320281     21.82093785      9.63103699 S
  atom      10.30707817     12.72492792     11.17255441 Mo
  atom      13.47142639     12.69186722     11.18825913 Mo
  atom      11.88863170     13.60593378     12.75709407 S
  atom      11.90474514     13.61671824      9.60999530 S
  atom      11.89316219     15.43115038     11.19067186 Mo
  atom      10.30707471     16.34192986     12.75996207 S
  atom      10.30706952     16.34618303      9.62553684 S
  atom      16.63533778     12.69125036     11.19622770 Mo
  atom      15.04977276     13.60273230     12.76195160 S
  atom      15.05713274     13.60797712      9.62670593 S
  atom      18.21420085     13.60339862     12.76744493 S
  atom      18.21637046     13.60629367      9.62968426 S
  atom      15.05296135     15.43245725     11.19712979 Mo
  atom      13.46977004     16.34369381     12.76457338 S
  atom      13.47465352     16.34850465      9.62695752 S
  atom      18.21480895     15.43074766     11.20012320 Mo
  atom      16.63264297     16.34294301     12.76851459 S
  atom      16.63540510     16.34558633      9.63079611 S
  atom      10.30707254     18.17033022     11.19589635 Mo
  atom      13.47072969     18.17096767     11.19811456 Mo
  atom      11.88775981     19.08169050     12.76629026 S
  atom      11.88945564     19.08414747      9.62908704 S
  atom      11.88874403     20.90853220     11.19892974 Mo
  atom      10.30707252     21.82134187     12.76743796 S
  atom      10.30707001     21.82109909      9.63051027 S
  atom      16.63368618     18.16998179     11.20080367 Mo
  atom      15.05112622     19.08262096     12.76851180 S
  atom      15.05352681     19.08400437      9.63143352 S
  atom      18.21436560     19.08261328     12.77017458 S
  atom      18.21523657     19.08300225      9.63288645 S
  atom      15.05200328     20.90887320     11.20042228 Mo
  atom      13.46964922     21.82149990     12.76823969 S
  atom      13.47094559     21.82093718      9.63103539 S
  atom      18.21468418     20.90856369     11.20148606 Mo
  atom      16.63294652     21.82204073     12.76936272 S
  atom      16.63395211     21.82085998      9.63210678 S
  atom      10.30708640     10.86421192     14.15104071 O
  #
  # What follows is the current estimated Hessian matrix constructed by the BFGS algorithm.
  # This is NOT the true Hessian matrix of the system.
  # If you do not want this information here, switch it off using the "hessian_to_restart_geometry" keyword.
  #
  trust_radius             0.0001995526
  hessian_block                1       1           9.283773          -0.156512          -0.035062          -0.156512          10.35161
  hessian_block                1       2          -1.181324           0.254721           0.012250          -0.221806           0.89245
  hessian_block                1       3          -1.529606          -0.624431          -1.386082          -0.861465          -0.89789
  hessian_block                1       4          -1.521046          -0.628924           1.417625          -0.862305          -0.91225
  hessian_block                1       5           0.191997          -0.759694          -0.022349           0.650685          -0.71843
  hessian_block                1       6           0.089065          -0.035801           0.001962           0.015789          -0.01076
  hessian_block                1       7           0.088461          -0.037370           0.001922           0.025134          -0.02585
  hessian_block                1       8           0.727480           0.288039          -0.028503           0.068943           1.21656
  hessian_block                1       9           0.065807          -0.221302           0.000064           0.017650          -0.20650
  hessian_block                1      10           0.083830          -0.230396          -0.000132           0.012951          -0.21187
  hessian_block                1      11          -0.126553          -0.023828           0.013781          -0.020725          -0.28219
  hessian_block                1      12          -0.112759          -0.032168           0.015719          -0.025494          -0.28723
  hessian_block                1      13           0.141844           0.604945           0.005796          -0.060202          -1.24895
  hessian_block                1      14          -0.130881          -0.060246           0.015326          -0.034551           0.23942
  hessian_block                1      15          -0.120515          -0.054547           0.016257          -0.033683           0.23164
  hessian_block                1      16           0.122268          -0.021562          -0.063956          -0.037704          -0.31934
  hessian_block                1      17          -0.010536          -0.068135           0.002629          -0.027525           0.15216
  hessian_block                1      18           0.003546          -0.097306           0.010827          -0.015709           0.12214
  hessian_block                1      19           0.437764           0.132992          -0.024616          -0.833603           0.03628
  hessian_block                1      20          -0.131591           0.094818          -0.064901          -0.292449          -0.07021
  hessian_block                1      21          -0.136087           0.027452           0.009534          -0.046467           0.08941
  hessian_block                1      22          -0.133485           0.038246           0.007819          -0.041960           0.08763
  hessian_block                1      23           0.412562          -0.407627          -0.005745           1.172089          -0.16557
  hessian_block                1      24          -0.114166          -0.007290           0.002520          -0.055388          -0.11751
  hessian_block                1      25          -0.117568          -0.003738           0.001170          -0.041072          -0.11940
  hessian_block                1      26          -0.276577          -0.041277           0.020771           0.028878           0.62260
  hessian_block                1      27           0.066621          -0.049360           0.004028           0.166377          -0.06622
  hessian_block                1      28           0.079015          -0.072986           0.010498           0.168456          -0.08330
  hessian_block                1      29          -0.033084           0.022032          -0.006301          -0.081995          -0.24818
  hessian_block                1      30          -0.019796           0.012705           0.001047          -0.101440          -0.11403
  hessian_block                1      31           0.119021           0.348790           0.021543          -0.616989           0.23336
  hessian_block                1      32           0.102084          -0.022746          -0.019935          -0.018538           0.10282
  hessian_block                1      33           0.118313          -0.047517          -0.009302          -0.018176           0.09410
  hessian_block                1      34          -0.236151           0.402422           0.001463           0.447108          -0.28110
  hessian_block                1      35          -0.222434          -0.158182           0.012907           0.013323           0.09494
  hessian_block                1      36          -0.196175          -0.059734           0.013542           0.024137           0.04013
  hessian_block                1      37          -0.427980          -0.096709           0.002293           0.260223           0.32382
  hessian_block                1      38           0.422153          -0.028173           0.025819          -0.122389           0.72436
  hessian_block                1      39           0.102723          -0.001010          -0.009857          -0.099036          -0.12398
  hessian_block                1      40           0.090412           0.002295          -0.010602          -0.104025          -0.13439
  hessian_block                1      41          -0.326623           0.204578           0.049980           0.114150          -0.79837
  hessian_block                1      42           0.001234           0.010324          -0.005754           0.039983           0.08116
  hessian_block                1      43           0.008832           0.030764          -0.010204           0.061754           0.05353
  hessian_block                1      44          -0.841326          -0.224669          -0.015886           0.828050          -0.03625
  hessian_block                1      45          -0.011518           0.168868           0.004481          -0.002895          -0.06576
  hessian_block                1      46          -0.032353           0.181021           0.003646          -0.003756          -0.07296
  hessian_block                1      47          -1.408248           0.691418           1.388614           0.694744          -0.88742
  hessian_block                1      48          -1.416148           0.697473          -1.409375           0.694865          -0.89991
  hessian_block                1      49           0.568690          -0.786802          -0.024980          -0.574969          -0.71427
  hessian_block                1      50           0.010489           0.084259           0.009695           0.076051           0.13980
  hessian_block                1      51          -0.008038           0.088690           0.007071           0.090774           0.13364
  hessian_block                1      52          -0.823590           0.841494           0.062812          -0.006410           0.08300
  hessian_block                1      53           0.067305           0.044436          -0.023492          -0.027205           0.11912
  hessian_block                1      54           0.053698           0.045877          -0.025729          -0.023418           0.10796
  hessian_block                1      55           0.383201          -0.380309           0.020483          -0.085567           0.84636
  hessian_block                1      56          -0.396229           0.194545          -0.019938           0.022993           0.89488
  hessian_block                1      57           0.035786           0.045116           0.000012           0.072302          -0.12856
  hessian_block                1      58           0.041144           0.081907          -0.011228           0.047494          -0.03492
  hessian_block                1      59          -0.064761          -0.118318           0.019422          -0.607157          -1.16824
  hessian_block                1      60           0.317256           0.056586          -0.026113           0.078968           0.50022
  hessian_block                1      61           0.199834          -0.058823          -0.004321           0.101571           0.41967
  hessian_block                1      62           0.088998          -0.050898           0.059712           0.650921          -0.52620
  hessian_block                1      63           0.016040           0.072379          -0.007919          -0.109327          -0.09561
  hessian_block                1      64           0.006055           0.072990          -0.009798          -0.103260          -0.10191
  hessian_block                1      65           0.012808          -0.078978          -0.005027           0.103633          -0.01643
  hessian_block                1      66           0.003512          -0.080979          -0.006888           0.111154          -0.02068
  hessian_block                1      67           0.385170          -0.859592          -0.003199           0.010256           0.26022
  hessian_block                1      68          -0.179185           0.184784          -0.002248           0.130800           0.19937
  hessian_block                1      69          -0.126494           0.178061          -0.015533           0.156195           0.15239
  hessian_block                1      70          -0.880635           0.470419           0.039917          -0.468114           0.66511
  hessian_block                1      71           0.228855           0.050507           0.001844          -0.057301          -0.02875
  hessian_block                1      72           0.204954           0.043845          -0.003570          -0.054780          -0.02784
  hessian_block                1      73           1.331163           0.047049          -0.022401          -0.308949           1.30594
  hessian_block                1      74          -1.220708           0.145014           0.002596          -0.223562          -0.03265
  hessian_block                1      75          -0.023178           0.140755          -0.003416          -0.017531          -0.30179
  hessian_block                1      76          -0.025197           0.146281          -0.005121          -0.015102          -0.29806
  hessian_block                1      77          -0.021693          -1.224425           0.026733           0.600856          -0.49809
  hessian_block                1      78           0.098692           0.034340          -0.001546           0.031853           0.05295
  hessian_block                1      79           0.096920           0.033993          -0.001594           0.023183           0.06759
  hessian_block                1      80           0.781978          -0.036582          -0.031750          -0.005121           0.17002
  hessian_block                1      81           0.071762          -0.056966          -0.004649           0.018577          -0.14843
  hessian_block                1      82           0.104794          -0.089380           0.011297           0.007706          -0.12534
  hessian_block                1      83          -0.080299           0.156632           0.013685           0.089612          -0.08192
  hessian_block                1      84          -0.060210           0.235435           0.008917           0.070728          -0.09959
  hessian_block                1      85           0.148876           0.254711          -0.001036          -0.000026          -0.20094
  hessian_block                1      86          -0.041491           0.083731          -0.018775           0.006668           0.18634
  hessian_block                1      87          -0.040488           0.085405          -0.018172           0.003680           0.19904
  hessian_block                1      88          -0.246072          -0.617632           0.022766          -0.086474           0.21027
  hessian_block                1      89           0.099853           0.267628          -0.008418           0.015648          -0.00804
  hessian_block                1      90           0.119451           0.261923          -0.003455           0.000304           0.02638
  hessian_block                1      91           0.410265          -0.001909          -0.012419          -0.676278           0.50309
  hessian_block                1      92          -0.203973           0.209512           0.068988          -0.493599           0.11410
  hessian_block                1      93          -0.106237          -0.043755          -0.014638          -0.006562           0.09806
  hessian_block                1      94          -0.099037          -0.045793          -0.013246          -0.012236           0.11207
  hessian_block                1      95           0.256884           0.170261           0.049568           1.029493          -1.87763
  hessian_block                1      96          -0.134495          -0.005356           0.003560           0.022416          -1.81475
  hessian_block                1      97          -0.134206          -0.003781           0.001357           0.016941          -1.81655
  hessian_block                1      98          -0.664137          -0.834503           0.022998          -0.085544           0.39641
  hessian_block                1      99           0.154451           0.032773          -0.014876           0.153788          -0.00058
  hessian_block                1     100           0.162130           0.025706          -0.010890           0.151780           0.00276
  hessian_block                1     101          -0.022503           0.219074          -0.003699          -0.067039          -0.06323
  hessian_block                1     102          -0.017289           0.212132          -0.002906          -0.059679          -0.07069
  hessian_block                1     103           0.164866           0.212601          -0.032033          -0.325447          -0.65179
  hessian_block                1     104           0.112223          -0.023684          -0.009813          -0.042142           0.35230
  hessian_block                1     105           0.126485          -0.035902          -0.007784          -0.046283           0.35025
  hessian_block                1     106          -0.024262          -0.272790          -0.012948           0.464132           0.03904
  hessian_block                1     107          -0.236286          -0.090584           0.019420          -0.062138          -0.02657
  hessian_block                1     108          -0.223786          -0.099137           0.021630          -0.063284          -0.02825
  hessian_block                1     109          -0.542848          -0.122445          -0.020053          -0.128438          -0.49576
  hessian_block                1     110           0.434181          -0.077675           0.024671          -0.047095           0.47853
  hessian_block                1     111           0.023909          -0.214599           0.003326          -0.055365          -0.05612
  hessian_block                1     112           0.048267          -0.285590           0.008293          -0.043193          -0.06335
  hessian_block                1     113           0.199354           1.216885          -0.048046           0.205112          -0.12814
  hessian_block                1     114          -0.033443          -0.044748          -0.004453          -0.014400          -0.06026
  hessian_block                1     115          -0.029183          -0.046171          -0.004407          -0.016517          -0.02077
  hessian_block                1     116          -0.632457           0.124485          -0.020256           0.795865          -0.10312
  hessian_block                1     117          -0.023428           0.033996           0.011816          -0.005304          -0.19463
  hessian_block                1     118          -0.055239           0.050415          -0.001283          -0.026755          -0.20117
  hessian_block                1     119          -0.062024          -0.130812           0.006657          -0.074804          -0.38740
  hessian_block                1     120          -0.063976          -0.125155           0.004779          -0.070368          -0.37881
  hessian_block                1     121           0.519214          -0.396793          -0.030817          -0.576156           0.13952
  hessian_block                1     122          -0.083101          -0.341325           0.022780           0.098657          -0.02725
  hessian_block                1     123          -0.103194          -0.331237           0.016782           0.080130           0.00722
  hessian_block                1     124          -0.618920           0.968252           0.023538          -0.090602           0.09992
  hessian_block                1     125          -0.008108          -0.021475           0.005602           0.016840           0.12407
  hessian_block                1     126          -0.008288          -0.024139           0.004844           0.007868           0.14103
  hessian_block                1     127           0.437015          -0.330057           0.013593          -0.005859          -0.37943
  hessian_block                1     128          -0.177587           0.984922           0.004883          -0.078817           0.27909
  hessian_block                1     129           0.020255          -0.187914          -0.000849           0.062938           0.05528
  hessian_block                1     130           0.013441          -0.181099          -0.001633           0.066780           0.04820
  hessian_block                1     131          -0.046625           0.598188          -0.007480          -0.434138          -0.32656
  hessian_block                1     132           0.169014          -0.043140          -0.002973          -0.005860           0.06974
  hessian_block                1     133           0.167519          -0.043253          -0.003206          -0.008651           0.07267
  hessian_block                1     134           0.179367          -0.378284          -0.059078           0.512170          -0.69244
  hessian_block                1     135          -0.037669           0.030108           0.008426          -0.112368           0.07451
  hessian_block                1     136          -0.046611           0.035513           0.004678          -0.114573           0.07682
  hessian_block                1     137           0.017065           0.068375           0.007510           0.155336           0.01090
  hessian_block                1     138           0.011145           0.073964           0.005817           0.149242           0.02489
  hessian_block                1     139           0.377475          -0.712571           0.020311           0.196130           0.07333
  hessian_block                1     140          -0.148375           0.106910          -0.004505           0.077194           0.00587
  hessian_block                1     141          -0.160596           0.114034          -0.006519           0.076796           0.00615
  hessian_block                1     142          -0.855473           0.086079           0.001340          -0.789031          -0.65310
  hessian_block                1     143           0.241664           0.011268          -0.004481          -0.051352           0.16586
  hessian_block                1     144           0.228652           0.022761          -0.006084          -0.055296           0.16388
  hessian_block                1     145          -0.054773          -0.062313           0.010291          -0.009498          -0.03355
  hessian_block                2       2           9.251302          -0.040941           0.005894          -0.040941          10.58154
  hessian_block                2       3          -1.369254           0.639907           1.407512           0.859086          -0.78316
  hessian_block                2       4          -1.374034           0.643916          -1.394774           0.858617          -0.79125
  hessian_block                2       5          -0.264163           1.266024          -0.010668          -0.460216          -1.59456
  hessian_block                2       6          -0.063727          -0.113432           0.000277          -0.015939           0.18393
  hessian_block                2       7          -0.065292          -0.114114           0.000189          -0.021147           0.17366
  hessian_block                2       8          -1.021610           0.231516          -0.006960          -0.623975           1.32352
  hessian_block                2       9          -1.451530          -0.740031          -1.403793          -0.746605          -1.10044
  hessian_block                2      10          -1.456464          -0.732520           1.399164          -0.742761          -1.10662
  hessian_block                2      11           0.015114          -0.039221           0.005141           0.036018          -0.31532
  hessian_block                2      12           0.008003          -0.045162           0.006550           0.044799          -0.31194
  hessian_block                2      13          -0.414972          -1.046276           0.004634           0.249328          -0.96738
  hessian_block                2      14           0.196559          -0.105219           0.010273           0.048234           0.18727
  hessian_block                2      15           0.196272          -0.100621           0.011600           0.054018           0.18413
  hessian_block                2      16           0.232928           0.573182          -0.037972           0.120685          -0.90172
  hessian_block                2      17          -0.083361           0.076902          -0.001804           0.056716           0.30424
  hessian_block                2      18          -0.098325           0.065508           0.003173           0.046580           0.25548
  hessian_block                2      19          -0.193706          -0.234181          -0.015546           0.864681           0.37730
  hessian_block                2      20           0.111456           0.546246          -0.042173          -0.059049           1.23935
  hessian_block                2      21           0.146233          -0.025674           0.005873           0.060616           0.00378
  hessian_block                2      22           0.153350          -0.017795           0.006326           0.060352           0.00133
  hessian_block                2      23          -0.659147           0.250344          -0.006301          -0.989868          -0.98625
  hessian_block                2      24           0.126845          -0.090143          -0.000144           0.115806           0.24237
  hessian_block                2      25           0.128207          -0.088139          -0.000890           0.113343           0.24068
  hessian_block                2      26           0.325358           0.206308           0.026956          -0.366430           0.16496
  hessian_block                2      27          -0.091332          -0.140260          -0.001732          -0.187804          -0.23665
  hessian_block                2      28          -0.087382          -0.139294           0.004890          -0.183053          -0.23548
  hessian_block                2      29          -0.058613           0.086733          -0.006863           0.052477           0.11653
  hessian_block                2      30          -0.082493           0.090023          -0.001713           0.114625           0.17897
  hessian_block                2      31          -0.199156          -0.582865           0.010982           1.064748           0.06942
  hessian_block                2      32          -0.072048           0.134298          -0.009882           0.016277           0.05851
  hessian_block                2      33          -0.087885           0.100948          -0.001786           0.009082           0.05832
  hessian_block                2      34           0.474404          -0.100673          -0.006587          -0.421149          -0.15365
  hessian_block                2      35           0.150550           0.053284           0.003351           0.062874           0.19513
  hessian_block                2      36           0.150092           0.108009           0.006797           0.016966           0.16821
  hessian_block                2      37           0.427959          -0.237687           0.000793           0.066477           1.23019
  hessian_block                2      38          -0.289603           0.454697           0.024336           0.306761           1.08923
  hessian_block                2      39          -0.005220           0.004735          -0.003198           0.069641          -0.27001
  hessian_block                2      40           0.000406           0.003882          -0.003674           0.079379          -0.27164
  hessian_block                2      41           0.109848          -0.436774           0.012089          -0.460694          -0.52013
  hessian_block                2      42           0.055978          -0.023094          -0.000701           0.002884           0.22457
  hessian_block                2      43           0.057297          -0.006549          -0.002760          -0.013723           0.17342
  hessian_block                2      44           0.749244          -0.349037          -0.014611          -0.393629           1.09468
  hessian_block                2      45          -0.039840          -0.126687           0.000956          -0.045799          -0.39763
  hessian_block                2      46          -0.032841          -0.127682           0.000058          -0.042275          -0.40143
  hessian_block                2      47          -0.028996           0.278408          -0.002173           0.025039          -0.29424
  hessian_block                2      48          -0.024881           0.275318          -0.002963           0.025057          -0.29936
  hessian_block                2      49          -0.438457           0.420569          -0.011417           0.027022           0.12381
  hessian_block                2      50           0.031569          -0.007584           0.010069           0.016343           0.00350
  hessian_block                2      51           0.045438          -0.014728           0.007994           0.005004          -0.02314
  hessian_block                2      52           0.500189          -0.545110           0.034035          -0.082300          -0.69731
  hessian_block                2      53          -0.057594           0.111705          -0.013969           0.158901           0.18203
  hessian_block                2      54          -0.054816           0.113300          -0.016104           0.164258           0.17478
  hessian_block                2      55          -0.429099          -0.250810           0.015710           0.273299          -0.46999
  hessian_block                2      56           0.270861           0.464363          -0.013295           0.369404          -0.18157
  hessian_block                2      57           0.045417          -0.090273           0.002074          -0.163400           0.22793
  hessian_block                2      58           0.049804          -0.074814          -0.005574          -0.099160           0.24829
  hessian_block                2      59          -0.043398          -0.051820           0.006029           0.360089           0.01371
  hessian_block                2      60          -0.270256           0.064361          -0.010363           0.143589           0.15949
  hessian_block                2      61          -0.143418           0.003603           0.001150           0.095281           0.12128
  hessian_block                2      62           0.111576          -0.818692           0.038417          -0.515560          -0.32556
  hessian_block                2      63           0.012743           0.072366          -0.002924          -0.013044          -0.05300
  hessian_block                2      64           0.007260           0.039719          -0.007078          -0.009812          -0.04442
  hessian_block                2      65          -0.117650           0.143330          -0.002206          -0.167793           0.00490
  hessian_block                2      66          -0.120982           0.147710          -0.004624          -0.171224          -0.00072
  hessian_block                2      67          -0.523951          -0.038254          -0.001193          -0.207131           1.23183
  hessian_block                2      68           0.227986           0.013834           0.000378          -0.004301          -0.08907
  hessian_block                2      69           0.165314           0.000075          -0.009222          -0.056979          -0.12594
  hessian_block                2      70           0.929194           0.258270           0.023747           0.480679          -0.00723
  hessian_block                2      71          -0.209857          -0.047568           0.003851           0.117685           0.03571
  hessian_block                2      72          -0.193466          -0.043314          -0.001497           0.112109           0.05013
  hessian_block                2      73          -1.131726          -0.303841          -0.010036           0.252828           0.04704
  hessian_block                2      74           1.267393           0.231732          -0.007152           0.157958           1.07070
  hessian_block                2      75          -0.046577          -0.057005          -0.003539          -0.072206          -0.11166
  hessian_block                2      76          -0.039052          -0.037553          -0.002871          -0.075107          -0.10981
  hessian_block                2      77           0.115571           0.560950           0.023070          -0.401898          -0.71421
  hessian_block                2      78          -0.080379          -0.097546          -0.002293           0.022959          -0.00021
  hessian_block                2      79          -0.080405          -0.095831          -0.002449           0.025649           0.01059
  hessian_block                2      80          -0.804657           0.235975          -0.004482          -0.195283          -0.17260
  hessian_block                2      81          -0.064397          -0.029489          -0.008116          -0.130069          -0.25712
  hessian_block                2      82          -0.097909          -0.094341           0.002856          -0.119777          -0.21109
  hessian_block                2      83           0.058237          -0.010332           0.005199          -0.104011          -0.02683
  hessian_block                2      84           0.066668           0.011775           0.004421          -0.083738          -0.02307
  hessian_block                2      85          -0.292987          -0.654720           0.006958           0.379337          -0.33385
  hessian_block                2      86           0.034542           0.037860          -0.014786          -0.035506           0.12845
  hessian_block                2      87           0.040750           0.055197          -0.012631          -0.041752           0.13046
  hessian_block                2      88           0.051462           0.157496           0.007267          -0.017318          -0.10239
  hessian_block                2      89          -0.026246           0.095939          -0.009800          -0.003567           0.07467
  hessian_block                2      90          -0.040391           0.078289          -0.005342           0.018757           0.12956
  hessian_block                2      91          -0.132042          -0.286848          -0.007695           0.095151           0.68251
  hessian_block                2      92           0.301523           0.083386           0.044902          -0.003764           0.55705
  hessian_block                2      93           0.021287           0.150417          -0.007740           0.169756          -0.00643
  hessian_block                2      94           0.017292           0.152737          -0.006789           0.174652          -0.00459
  hessian_block                2      95          -0.067255          -0.438587           0.018612          -0.779139          -1.25951
  hessian_block                2      96           0.136171          -0.104790          -0.000487          -0.061220           0.17192
  hessian_block                2      97           0.136492          -0.101938          -0.000986          -0.057837           0.16398
  hessian_block                2      98           0.210506           0.240013           0.034316          -0.179271           0.25619
  hessian_block                2      99          -0.112093          -0.155602          -0.014720          -0.039716          -0.20402
  hessian_block                2     100          -0.120183          -0.145654          -0.012020          -0.044554          -0.20674
  hessian_block                2     101           0.054408           0.034458          -0.004308           0.127074           0.10083
  hessian_block                2     102           0.054615           0.039498          -0.003058           0.114299           0.09934
  hessian_block                2     103          -0.075155           0.082633          -0.016910           0.719157          -0.49483
  hessian_block                2     104          -0.167348           0.064348          -0.001821          -0.024179          -1.99383
  hessian_block                2     105          -0.175755           0.070505          -0.002585          -0.022120          -2.00096
  hessian_block                2     106          -0.191557           0.100408          -0.034416          -0.518749          -0.75071
  hessian_block                2     107           0.179267          -0.001093           0.011275           0.106597           0.10018
  hessian_block                2     108           0.171655           0.004301           0.012755           0.110367           0.09315
  hessian_block                2     109           0.577493          -0.143741          -0.013885          -0.159187          -0.29860
  hessian_block                2     110          -0.601954           0.495789           0.018045           0.430835          -0.48572
  hessian_block                2     111          -0.010531          -0.102037           0.005920          -0.001467          -0.02528
  hessian_block                2     112          -0.070618          -0.120249           0.006603          -0.025754           0.00230
  hessian_block                2     113           0.130060          -0.023790          -0.040367          -0.563152           0.43273
  hessian_block                2     114           0.077441          -0.006380           0.000200           0.109551           0.05916
  hessian_block                2     115           0.074918          -0.010643           0.000314           0.106862           0.07289
  hessian_block                2     116           0.793136          -0.430746          -0.009018          -0.292185          -0.64814
  hessian_block                2     117           0.009099          -0.042462           0.008582          -0.187431          -0.01080
  hessian_block                2     118           0.041904           0.000770          -0.000761          -0.175525           0.00278
  hessian_block                2     119           0.078606           0.150291           0.005174          -0.078437          -0.08153
  hessian_block                2     120           0.073766           0.143333           0.002548          -0.083969          -0.07945
  hessian_block                2     121          -0.483075           0.103245          -0.025285           0.203239           0.82015
  hessian_block                2     122          -0.026856          -0.041758           0.019727          -0.036166          -0.28510
  hessian_block                2     123          -0.008868          -0.024345           0.014583          -0.010753          -0.23798
  hessian_block                2     124           0.173675           0.064557           0.007347          -0.015087           0.12161
  hessian_block                2     125           0.086134           0.012390           0.008027           0.053013           0.11597
  hessian_block                2     126           0.080113          -0.007097           0.005949           0.053719           0.12476
  hessian_block                2     127          -0.386775          -0.326238           0.012086          -0.061313          -0.58751
  hessian_block                2     128           0.400623           0.476271          -0.005621           0.536104           0.12520
  hessian_block                2     129          -0.069858          -0.052319           0.000295          -0.044082           0.13029
  hessian_block                2     130          -0.068200          -0.059341          -0.000757          -0.053847           0.13238
  hessian_block                2     131           0.472790           0.056932           0.005812          -0.014033          -0.50576
  hessian_block                2     132          -0.122049          -0.031898           0.002674           0.020688           0.05789
  hessian_block                2     133          -0.120674          -0.032879           0.002596           0.025689           0.05584
  hessian_block                2     134          -0.062561          -0.484268          -0.040966          -0.354279          -1.03166
  hessian_block                2     135           0.010663           0.102793           0.006616           0.116657          -0.01974
  hessian_block                2     136           0.017790           0.094325           0.004051           0.109253          -0.02100
  hessian_block                2     137          -0.012151          -0.006063           0.004127          -0.078072           0.01011
  hessian_block                2     138          -0.008067          -0.004888           0.002849          -0.074773           0.01211
  hessian_block                2     139          -0.665657          -0.636083           0.012823          -0.677437           0.53389
  hessian_block                2     140           0.146487           0.064834          -0.004308           0.053589          -0.16689
  hessian_block                2     141           0.152465           0.057619          -0.005361           0.057443          -0.17327
  hessian_block                2     142           0.282932           0.997842           0.010887           0.683557          -0.42989
  hessian_block                2     143          -0.128328           0.005894          -0.002754           0.098656          -0.08375
  hessian_block                2     144          -0.119946          -0.001314          -0.003681           0.101878          -0.09166
  hessian_block                2     145           0.049725          -0.045645           0.006997          -0.011320          -0.01226
  hessian_block                3       3           5.097039           0.019484          -0.000013           0.019484           5.14277
  hessian_block                3       4           0.102759           0.019188           0.002951           0.019498           0.15452
  hessian_block                3       5          -0.294859          -0.030737          -0.001516           0.041387          -1.90100
  hessian_block                3       6          -0.022584           0.036878           0.003196           0.010524          -0.02949
  hessian_block                3       7          -0.007683           0.015591           0.003603          -0.012931           0.01129
  hessian_block                3       8           0.019356           0.010261           0.073313           0.112771          -0.39996
  hessian_block                3       9          -0.128440          -0.017711          -0.015985           0.025437           0.06627
  hessian_block                3      10          -0.085950          -0.020851          -0.009687           0.027120           0.07263
  hessian_block                3      11           0.029451           0.023363          -0.000439           0.009573           0.12361
  hessian_block                3      12           0.024929           0.021879           0.004304           0.008486           0.12405
  hessian_block                3      13           0.230707          -0.131542           0.045192          -0.113030           0.35440
  hessian_block                3      14           0.044436           0.036884          -0.021703          -0.013566          -0.07564
  hessian_block                3      15           0.058304           0.059747          -0.017275           0.007655          -0.03371
  hessian_block                3      16          -0.168843          -0.037898           0.046227           0.043230          -0.00436
  hessian_block                3      17          -0.027328           0.026725          -0.011311           0.013658          -0.00714
  hessian_block                3      18          -0.032369           0.028838          -0.001114           0.009220          -0.00728
  hessian_block                3      19          -0.043822          -0.173889           0.021182          -0.079255           0.06448
  hessian_block                3      20          -0.185460           0.065062          -0.010365          -0.091150          -0.02632
  hessian_block                3      21           0.047084           0.018201          -0.004184           0.049762          -0.01265
  hessian_block                3      22           0.046192           0.016839          -0.001843           0.051186          -0.00798
  hessian_block                3      23          -0.062085           0.082009          -0.009411          -0.042007          -0.00982
  hessian_block                3      24          -0.005066          -0.009067          -0.010524          -0.015303           0.02135
  hessian_block                3      25          -0.004107          -0.008689          -0.012641          -0.023031           0.01549
  hessian_block                3      26           0.056531          -0.042953          -0.049182           0.140659          -0.09718
  hessian_block                3      27           0.003605          -0.013293          -0.006314          -0.008709          -0.01677
  hessian_block                3      28          -0.013576          -0.024498           0.005695          -0.015542          -0.02035
  hessian_block                3      29          -0.004483          -0.002543           0.020912          -0.057832          -0.01913
  hessian_block                3      30          -0.018024          -0.020611           0.029547          -0.009053           0.01868
  hessian_block                3      31           0.092471          -0.090659           0.027992          -0.057476           0.01284
  hessian_block                3      32           0.001560           0.014919          -0.001098           0.009163          -0.00405
  hessian_block                3      33          -0.006802           0.010171           0.012185           0.009570          -0.00145
  hessian_block                3      34           0.085606           0.009686           0.004892          -0.138726           0.05704
  hessian_block                3      35          -0.018543           0.006673          -0.014830           0.023318           0.01786
  hessian_block                3      36           0.001394           0.032882          -0.029945          -0.006303          -0.01473
  hessian_block                3      37          -0.009599          -0.039385          -0.088788          -0.244969          -0.25654
  hessian_block                3      38          -0.043888           0.047556          -0.002614          -0.044956          -0.17718
  hessian_block                3      39          -0.020128          -0.005900           0.012247           0.042987           0.09190
  hessian_block                3      40          -0.015243          -0.003355           0.008890           0.041971           0.09283
  hessian_block                3      41           0.180913           0.015560           0.006564           0.083053           0.08440
  hessian_block                3      42           0.003334          -0.021156          -0.003729          -0.044019          -0.02218
  hessian_block                3      43          -0.000336          -0.025611          -0.005748          -0.053861          -0.02754
  hessian_block                3      44           0.010822           0.057566          -0.050893          -0.319033          -0.18014
  hessian_block                3      45           0.039617          -0.030925           0.014902           0.063827           0.04810
  hessian_block                3      46           0.048571          -0.027996           0.009090           0.064165           0.05083
  hessian_block                3      47          -0.110287          -0.007045           0.004667           0.020249           0.10380
  hessian_block                3      48          -0.056278          -0.007048           0.000030           0.019349           0.10928
  hessian_block                3      49          -0.221352          -0.024834           0.014773          -0.016106           0.11372
  hessian_block                3      50           0.042126           0.037221           0.009780          -0.001222          -0.02006
  hessian_block                3      51           0.051071           0.040224           0.004496          -0.008087          -0.02557
  hessian_block                3      52           0.322296           0.069091          -0.010149           0.119264          -0.01052
[...]
  |    96       16.235406       -0.235406        5.851370       10.094687        0.230616        0.048789        0.009945
  |    97       16.235876       -0.235876        5.851154       10.094854        0.231038        0.048871        0.009959
  |    98       41.528336        0.471664        8.153229       18.649705       14.614864        0.096051        0.014487
  |    99       16.235258       -0.235258        5.851407       10.094499        0.230616        0.048790        0.009946
  |   100       16.235889       -0.235889        5.851144       10.094789        0.231110        0.048885        0.009961
  |   101       16.235088       -0.235088        5.851429       10.094197        0.230709        0.048805        0.009949
  |   102       16.235988       -0.235988        5.851203       10.095205        0.230801        0.048827        0.009952
  |   103       41.528237        0.471763        8.153141       18.649686       14.614879        0.096044        0.014487
  |   104       16.235382       -0.235382        5.851378       10.094628        0.230635        0.048794        0.009947
  |   105       16.235882       -0.235882        5.851157       10.094818        0.231068        0.048879        0.009960
  |   106       41.528210        0.471790        8.153118       18.649684       14.614900        0.096025        0.014484
  |   107       16.235305       -0.235305        5.851392       10.094539        0.230635        0.048793        0.009946
  |   108       16.235886       -0.235886        5.851164       10.094877        0.231018        0.048869        0.009958
  |   109       41.547204        0.452796        8.149886       18.644714       14.644741        0.093847        0.014016
  |   110       41.526144        0.473856        8.152553       18.648340       14.615050        0.095749        0.014451
  |   111       16.231357       -0.231357        5.853818       10.088317        0.230278        0.048884        0.010060
  |   112       16.238894       -0.238894        5.851907       10.099946        0.228617        0.048489        0.009935
  |   113       41.528093        0.471907        8.153615       18.649629       14.614058        0.096296        0.014497
  |   114       16.233036       -0.233036        5.851675       10.092800        0.230054        0.048603        0.009904
  |   115       16.235384       -0.235384        5.851285       10.095490        0.230054        0.048634        0.009921
  |   116       41.527931        0.472069        8.152897       18.649597       14.614928        0.096023        0.014486
  |   117       16.234391       -0.234391        5.851652       10.093539        0.230515        0.048745        0.009939
  |   118       16.235106       -0.235106        5.851137       10.093214        0.231781        0.048995        0.009979
  |   119       16.235158       -0.235158        5.851504       10.094401        0.230529        0.048779        0.009945
  |   120       16.235946       -0.235946        5.851150       10.094670        0.231240        0.048918        0.009968
  |   121       41.527938        0.472062        8.152908       18.649597       14.614924        0.096023        0.014486
  |   122       16.234298       -0.234298        5.851613       10.093109        0.230785        0.048840        0.009951
  |   123       16.235213       -0.235213        5.851172       10.093520        0.231575        0.048972        0.009974
  |   124       41.528255        0.471745        8.153142       18.649673       14.614954        0.096002        0.014484
  |   125       16.235230       -0.235230        5.851490       10.094496        0.230522        0.048776        0.009945
  |   126       16.235949       -0.235949        5.851153       10.094709        0.231210        0.048911        0.009966
  |   127       41.528019        0.471981        8.153442       18.649872       14.614182        0.096042        0.014481
  |   128       41.528336        0.471664        8.153229       18.649705       14.614864        0.096051        0.014487
  |   129       16.235088       -0.235088        5.851429       10.094197        0.230708        0.048805        0.009949
  |   130       16.235988       -0.235988        5.851203       10.095206        0.230800        0.048826        0.009952
  |   131       41.528211        0.471789        8.153118       18.649685       14.614900        0.096025        0.014484
  |   132       16.235239       -0.235239        5.851388       10.094403        0.230700        0.048802        0.009947
  |   133       16.235882       -0.235882        5.851163       10.094901        0.230999        0.048862        0.009957
  |   134       41.528150        0.471850        8.153059       18.649652       14.614938        0.096016        0.014485
  |   135       16.235257       -0.235257        5.851407       10.094498        0.230617        0.048790        0.009946
  |   136       16.235889       -0.235889        5.851144       10.094789        0.231110        0.048885        0.009961
  |   137       16.235359       -0.235359        5.851396       10.094621        0.230607        0.048790        0.009946
  |   138       16.235881       -0.235881        5.851150       10.094744        0.231133        0.048891        0.009962
  |   139       41.528237        0.471763        8.153141       18.649685       14.614879        0.096044        0.014487
  |   140       16.235305       -0.235305        5.851392       10.094539        0.230635        0.048793        0.009946
  |   141       16.235886       -0.235886        5.851163       10.094877        0.231018        0.048869        0.009958
  |   142       41.528223        0.471777        8.153126       18.649680       14.614898        0.096033        0.014486
  |   143       16.235382       -0.235382        5.851379       10.094627        0.230635        0.048794        0.009947
  |   144       16.235882       -0.235882        5.851157       10.094818        0.231068        0.048879        0.009960
  |   145        8.055401       -0.055401        3.698939        4.312604        0.038927        0.004365        0.000566
  |
  | Total     3560.000000       -0.000000
 
  Calculating angular momentum projected density of states ...
  | Chemical potential is  -4.423566 eV.
  | writing projected DOS (shifted by the chemical potential) for species Mo to file Mo_l_proj_dos.dat.
  | writing projected DOS (raw data) for species Mo to file Mo_l_proj_dos_raw.dat.
  | writing projected DOS (shifted by the chemical potential) for species S to file S_l_proj_dos.dat.
  | writing projected DOS (raw data) for species S to file S_l_proj_dos_raw.dat.
  | writing projected DOS (shifted by the chemical potential) for species O to file O_l_proj_dos.dat.
  | writing projected DOS (raw data) for species O to file O_l_proj_dos_raw.dat.
  Post-scf processing of Kohn-Sham eigenvalues on a denser k-point grid.
  | Using dos_kgrid_factors to calculate post-scf total density of states.
  | Electron chemical potential:    -4.423565622301 eV.
  Integrating Hamiltonian matrix: batch-based integration.
  Time summed over all CPUs for integration: real work      880.265 s, elapsed     1607.739 s => Consider using load balancing!
  Processing batch of k-points:     1     1     1
  Processing batch of k-points:     1     1     2
  Processing batch of k-points:     1     2     1
  Processing batch of k-points:     1     2     2
  Processing batch of k-points:     2     1     1
  Processing batch of k-points:     2     1     2
  Processing batch of k-points:     2     2     1
  Processing batch of k-points:     2     2     2
  | writing perturbative DOS (shifted by electron chemical potential) to file KS_dos_total.dat
  | writing perturbative DOS (raw data) to file KS_dos_total_raw.dat

  Perturbative DOS                                        :  max(cpu_time) wall_clock(cpu1)
  | Total Time                                            :       2867.294         2867.340
  ------------------------------------------------------------
  Plotting bands using SCALAPACK
  Integrating Hamiltonian matrix: batch-based integration.
  Time summed over all CPUs for integration: real work      883.621 s, elapsed     1636.972 s => Consider using load balancing!
  Solving hermitian generalised eigenvalue problem by standard ScaLAPACK.
  Transforming overlap matrix with ScaLAPACK and checking for singularities.
  k-point 1: Overlap matrix is nonsingular, using Cholesky decomposition
  | Lowest eigenvalue:  0.294972E-03
  Factoring overlap matrix with Cholesky decomposition
  Using Cholesky factor for transformation
  Using 2-stage complex ELPA solver
  Solving hermitian generalised eigenvalue problem by standard ScaLAPACK.
  Transforming overlap matrix with ScaLAPACK and checking for singularities.
  k-point 1: Overlap matrix is nonsingular, using Cholesky decomposition
  | Lowest eigenvalue:  0.295705E-03
  Factoring overlap matrix with Cholesky decomposition
  Using Cholesky factor for transformation
  Using 2-stage complex ELPA solver
  Solving hermitian generalised eigenvalue problem by standard ScaLAPACK.
  Transforming overlap matrix with ScaLAPACK and checking for singularities.
  k-point 1: Overlap matrix is nonsingular, using Cholesky decomposition
  | Lowest eigenvalue:  0.297429E-03
  Factoring overlap matrix with Cholesky decomposition
  Using Cholesky factor for transformation
  Using 2-stage complex ELPA solver
"Band gap" along reciprocal space direction number:    1
  |Lowest unoccupied state: -.4368E+01eV
  |Highest occupied state:   -.6099E+01eV

  Solving hermitian generalised eigenvalue problem by standard ScaLAPACK.
  Transforming overlap matrix with ScaLAPACK and checking for singularities.
  k-point 1: Overlap matrix is nonsingular, using Cholesky decomposition
  | Lowest eigenvalue:  0.298006E-03
  Factoring overlap matrix with Cholesky decomposition
  Using Cholesky factor for transformation
  Using 2-stage complex ELPA solver
  Solving hermitian generalised eigenvalue problem by standard ScaLAPACK.
  Transforming overlap matrix with ScaLAPACK and checking for singularities.
  k-point 1: Overlap matrix is nonsingular, using Cholesky decomposition
  | Lowest eigenvalue:  0.301666E-03
  Factoring overlap matrix with Cholesky decomposition
  Using Cholesky factor for transformation
  Using 2-stage complex ELPA solver
  Solving hermitian generalised eigenvalue problem by standard ScaLAPACK.
  Transforming overlap matrix with ScaLAPACK and checking for singularities.
  k-point 1: Overlap matrix is nonsingular, using Cholesky decomposition
  | Lowest eigenvalue:  0.305873E-03
  Factoring overlap matrix with Cholesky decomposition
  Using Cholesky factor for transformation
  Using 2-stage complex ELPA solver
"Band gap" along reciprocal space direction number:    2
  |Lowest unoccupied state: -.4215E+01eV
  |Highest occupied state:   -.6208E+01eV

  Solving hermitian generalised eigenvalue problem by standard ScaLAPACK.
  Transforming overlap matrix with ScaLAPACK and checking for singularities.
  k-point 1: Overlap matrix is nonsingular, using Cholesky decomposition
  | Lowest eigenvalue:  0.305505E-03
  Factoring overlap matrix with Cholesky decomposition
  Using Cholesky factor for transformation
  Using 2-stage complex ELPA solver
  Solving hermitian generalised eigenvalue problem by standard ScaLAPACK.
  Transforming overlap matrix with ScaLAPACK and checking for singularities.
  k-point 1: Overlap matrix is nonsingular, using Cholesky decomposition
  | Lowest eigenvalue:  0.299848E-03
  Factoring overlap matrix with Cholesky decomposition
  Using Cholesky factor for transformation
  Using 2-stage complex ELPA solver
  Solving hermitian generalised eigenvalue problem by standard ScaLAPACK.
  Transforming overlap matrix with ScaLAPACK and checking for singularities.
  k-point 1: Overlap matrix is nonsingular, using Cholesky decomposition
  | Lowest eigenvalue:  0.295669E-03
  Factoring overlap matrix with Cholesky decomposition
  Using Cholesky factor for transformation
  Using 2-stage complex ELPA solver
"Band gap" along reciprocal space direction number:    3
  |Lowest unoccupied state: -.4368E+01eV
  |Highest occupied state:   -.6099E+01eV

  Solving hermitian generalised eigenvalue problem by standard ScaLAPACK.
  Transforming overlap matrix with ScaLAPACK and checking for singularities.
  k-point 1: Overlap matrix is nonsingular, using Cholesky decomposition
  | Lowest eigenvalue:  0.294972E-03
  Factoring overlap matrix with Cholesky decomposition
  Using Cholesky factor for transformation
  Using 2-stage complex ELPA solver
  Solving hermitian generalised eigenvalue problem by standard ScaLAPACK.
  Transforming overlap matrix with ScaLAPACK and checking for singularities.
  k-point 1: Overlap matrix is nonsingular, using Cholesky decomposition
  | Lowest eigenvalue:  0.296634E-03
  Factoring overlap matrix with Cholesky decomposition
  Using Cholesky factor for transformation
  Using 2-stage complex ELPA solver
  Solving hermitian generalised eigenvalue problem by standard ScaLAPACK.
  Transforming overlap matrix with ScaLAPACK and checking for singularities.
  k-point 1: Overlap matrix is nonsingular, using Cholesky decomposition
  | Lowest eigenvalue:  0.300828E-03
  Factoring overlap matrix with Cholesky decomposition
  Using Cholesky factor for transformation
  Using 2-stage complex ELPA solver
"Band gap" along reciprocal space direction number:    4
  |Lowest unoccupied state: -.4368E+01eV
  |Highest occupied state:   -.6099E+01eV


  Band Structure                                          :  max(cpu_time) wall_clock(cpu1)
  | Total Time                                            :       3063.163         3063.296
  ------------------------------------------------------------

------------------------------------------------------------------------------
  Final output of selected total energy values:

  The following output summarizes some interesting total energy values
  at the end of a run (AFTER all relaxation, molecular dynamics, etc.).

  | Total energy of the DFT / Hartree-Fock s.c.f. calculation      :       -6385908.913034404 eV
  | Final zero-broadening corrected energy (caution - metals only) :       -6385908.913034404 eV
  | For reference only, the value of 1 Hartree used in FHI-aims is :             27.211384500 eV

  Before relying on these values, please be sure to understand exactly which
  total energy value is referred to by a given number. Different objects may
  all carry the same name 'total energy'. Definitions:

  Total energy of the DFT / Hartree-Fock s.c.f. calculation:
  | Note that this energy does not include ANY quantities calculated after the
  | s.c.f. cycle, in particular not ANY RPA, MP2, etc. many-body perturbation terms.

  Final zero-broadening corrected energy:
  | For metallic systems only, a broadening of the occupation numbers at the Fermi
  | level can be extrapolated back to zero broadening by an electron-gas inspired
  | formula. For all systems that are not real metals, this value can be
  | meaningless and should be avoided.

------------------------------------------------------------------------------
  Methods described in the following list of references were used in this FHI-aims run.
  If you publish the results, please make sure to cite these reference if they apply.
  FHI-aims is an academic code, and for our developers (often, Ph.D. students
  and postdocs), scientific credit in the community is essential.
  Thank you for helping us!

  For any use of FHI-aims, please cite:

    Volker Blum, Ralf Gehrke, Felix Hanke, Paula Havu, Ville Havu,
    Xinguo Ren, Karsten Reuter, and Matthias Scheffler
    'Ab initio molecular simulations with numeric atom-centered orbitals'
    Computer Physics Communications 180, 2175-2196 (2009)
    http://dx.doi.org/10.1016/j.cpc.2009.06.022


  For the analytical stress tensor used in your run, please cite:

    Franz Knuth, Christian Carbogno, Viktor Atalla, Volker Blum, Matthias Scheffler
    'All-electron formalism for total energy strain derivatives and
    stress tensor components for numeric atom-centered orbitals'
    Computer Physics Communications 190, 33-50 (2015).
    http://dx.doi.org/10.1016/j.cpc.2015.01.003


  The scalable eigensolver library ELPA was used in your run.
  ELPA is essential especially for large systems on hundreds or thousands of CPUs.
  For ELPA, please cite:

    Andreas Marek, Volker Blum, Rainer Johanni, Ville Havu, Bruno Lang,
    Thomas Auckenthaler, Alexander Heinecke, Hans-Joachim Bungartz, and Hermann Lederer,
    'The ELPA Library - Scalable Parallel Eigenvalue Solutions
    for Electronic Structure Theory and Computational Science'
    The Journal of Physics: Condensed Matter 26, 213201 (2014).
    http://dx.doi.org/10.1088/0953-8984/26/21/213201


  For ELPA's efficient two-stage tridiagonalization used in your run, please cite:

    T. Auckenthaler, V. Blum, H.-J. Bungartz, T. Huckle, R. Johanni, L. Kraemer,
    B. Lang, H. Lederer, and P. R. Willems,
    'Parallel solution of partial symmetric eigenvalue problems'
    'from  electronic structure calculations'
    Parallel Computing 37, 783-794 (2011).
    http://dx.doi.org/10.1016/j.parco.2011.05.002


  For the real-space grid partitioning and parallelization used in this calculation, please cite:

    Ville Havu, Volker Blum, Paula Havu, and Matthias Scheffler,
    'Efficient O(N) integration for all-electron electronic structure calculation'
    'using numerically tabulated basis functions'
    Journal of Computational Physics 228, 8367-8379 (2009).
    http://dx.doi.org/10.1016/j.jcp.2009.08.008

  Of course, there are many other important community references, e.g., those cited in the
  above references. Our list is limited to references that describe implementations in the
  FHI-aims code. The reason is purely practical (length of this list) - please credit others as well.

------------------------------------------------------------
          Leaving FHI-aims.
          Date     :  20200401, Time     :  213740.718

          Computational steps:
          | Number of self-consistency cycles          :           32
          | Number of relaxation steps                 :            0

          Detailed time accounting                     :  max(cpu_time)    wall_clock(cpu1)
          | Total time                                 :    10514.251 s       10514.346 s
          | Preparation time                           :        0.737 s           1.507 s
          | Boundary condition initalization           :        2.919 s           2.920 s
          | Grid partitioning                          :        5.573 s           5.553 s
          | Preloading free-atom quantities on grid    :        0.034 s           0.062 s
          | Free-atom superposition energy             :        0.394 s           0.394 s
          | Total time for integrations                :      246.452 s         246.536 s
          | Total time for solution of K.-S. equations :     2830.807 s        2830.358 s
          | Total time for EV reorthonormalization     :        0.000 s           0.000 s
          | Total time for density & force components  :     1087.383 s        1087.555 s
          | Total time for mixing & preconditioning    :       60.823 s          61.023 s
          | Total time for Hartree multipole update    :       68.781 s          69.007 s
          | Total time for Hartree multipole sum       :      244.410 s         244.579 s
          | Total time for total energy evaluation     :        0.287 s           0.749 s
          | Total time for scaled ZORA corrections     :        0.000 s           0.000 s
          | Total time for vdW correction              :       12.316 s          12.322 s
          | Total time for band structures, DOS        :     5930.861 s        5930.636 s

          Have a nice day.
------------------------------------------------------------
