  MPI-parallelism will be employed.
------------------------------------------------------------
          Invoking FHI-aims ...
          Version 170329
          Git rev.: 67224d2 PGI compatibility fixes.
          Compiled on 2017/04/04 at 21:21:26 on host access.grid.unesp.br.

          When using FHI-aims, please cite the following reference:

          Volker Blum, Ralf Gehrke, Felix Hanke, Paula Havu,
          Ville Havu, Xinguo Ren, Karsten Reuter, and Matthias Scheffler,
          'Ab Initio Molecular Simulations with Numeric Atom-Centered Orbitals',
          Computer Physics Communications 180, 2175-2196 (2009)

          For any questions about FHI-aims, please visit the aimsclub website
          with its forums and wiki. Contributions to both the forums and the
          wiki are warmly encouraged - they are for you, and everyone is welcome there.

------------------------------------------------------------



  Date     :  20200331, Time     :  221308.085
  Time zero on CPU 1             :   0.187843000000000E+00  s.
  Internal wall clock time zero  :           354924788.085  s.

  FHI-aims created a unique identifier for this run for later identification
  aims_uuid : 801F5DB6-E91F-4837-A2B7-C77DE77A6E67

  Using      100 parallel tasks.
  Task        0 on host node006 reporting.
  Task        1 on host node006 reporting.
  Task        2 on host node006 reporting.
  Task        3 on host node006 reporting.
  Task        4 on host node006 reporting.
  Task        5 on host node006 reporting.
  Task        6 on host node011 reporting.
  Task        7 on host node011 reporting.
  Task        8 on host node011 reporting.
  Task        9 on host node011 reporting.
  Task       10 on host node011 reporting.
  Task       11 on host node011 reporting.
  Task       12 on host node011 reporting.
  Task       13 on host node011 reporting.
  Task       14 on host node012 reporting.
  Task       15 on host node012 reporting.
  Task       16 on host node012 reporting.
  Task       17 on host node012 reporting.
  Task       18 on host node013 reporting.
  Task       19 on host node013 reporting.
  Task       20 on host node013 reporting.
  Task       21 on host node013 reporting.
  Task       22 on host node013 reporting.
  Task       23 on host node013 reporting.
  Task       24 on host node013 reporting.
  Task       25 on host node013 reporting.
  Task       26 on host node031 reporting.
  Task       27 on host node031 reporting.
  Task       28 on host node031 reporting.
  Task       29 on host node031 reporting.
  Task       30 on host node031 reporting.
  Task       31 on host node031 reporting.
  Task       32 on host node031 reporting.
  Task       33 on host node031 reporting.
  Task       34 on host node031 reporting.
  Task       35 on host node031 reporting.
  Task       36 on host node031 reporting.
  Task       37 on host node031 reporting.
  Task       38 on host node031 reporting.
  Task       39 on host node031 reporting.
  Task       40 on host node032 reporting.
  Task       41 on host node032 reporting.
  Task       42 on host node032 reporting.
  Task       43 on host node032 reporting.
  Task       44 on host node032 reporting.
  Task       45 on host node032 reporting.
  Task       46 on host node032 reporting.
  Task       47 on host node032 reporting.
  Task       48 on host node032 reporting.
  Task       49 on host node032 reporting.
  Task       50 on host node045 reporting.
  Task       51 on host node045 reporting.
  Task       52 on host node045 reporting.
  Task       53 on host node045 reporting.
  Task       54 on host node045 reporting.
  Task       55 on host node045 reporting.
  Task       56 on host node045 reporting.
  Task       57 on host node045 reporting.
  Task       58 on host node046 reporting.
  Task       59 on host node046 reporting.
  Task       60 on host node046 reporting.
  Task       61 on host node046 reporting.
  Task       62 on host node046 reporting.
  Task       63 on host node046 reporting.
  Task       64 on host node046 reporting.
  Task       65 on host node046 reporting.
  Task       66 on host node046 reporting.
  Task       67 on host node046 reporting.
  Task       68 on host node046 reporting.
  Task       69 on host node046 reporting.
  Task       70 on host node053 reporting.
  Task       71 on host node053 reporting.
  Task       72 on host node053 reporting.
  Task       73 on host node053 reporting.
  Task       74 on host node053 reporting.
  Task       75 on host node053 reporting.
  Task       76 on host node053 reporting.
  Task       77 on host node053 reporting.
  Task       78 on host node053 reporting.
  Task       79 on host node053 reporting.
  Task       80 on host node053 reporting.
  Task       81 on host node053 reporting.
  Task       82 on host node053 reporting.
  Task       83 on host node053 reporting.
  Task       84 on host node054 reporting.
  Task       85 on host node054 reporting.
  Task       86 on host node054 reporting.
  Task       87 on host node054 reporting.
  Task       88 on host node054 reporting.
  Task       89 on host node054 reporting.
  Task       90 on host node054 reporting.
  Task       91 on host node054 reporting.
  Task       92 on host node055 reporting.
  Task       93 on host node055 reporting.
  Task       94 on host node055 reporting.
  Task       95 on host node055 reporting.
  Task       96 on host node055 reporting.
  Task       97 on host node055 reporting.
  Task       98 on host node055 reporting.
  Task       99 on host node055 reporting.

  Performing system and environment tests:
  *** Environment variable OMP_NUM_THREADS is not set
  *** For performance reasons you might want to set it to 1
  | Stacksize not measured: no C compiler
  | Checking for scalapack...
  | Testing pdtran()...
  | All pdtran() tests passed.

  Obtaining array dimensions for all initial allocations:
  
  -----------------------------------------------------------------------
  Parsing control.in (first pass over file, find array dimensions only).
  The contents of control.in will be repeated verbatim below
  unless switched off by setting 'verbatim_writeout .false.' .
  in the first line of control.in .
  -----------------------------------------------------------------------
  
  #
   xc pbe
   vdw_correction_hirshfeld
   relativistic atomic_zora scalar
  #
   occupation_type gaussian 0.01
   n_max_pulay 8
   charge_mix_param 0.2
   sc_accuracy_rho 1e-6
   sc_accuracy_eev 1e-4
  #
   relax_geometry bfgs 5e-4
   relax_unit_cell full
  #
  use_dipole_correction
  #
  sc_accuracy_forces 1e-5
  sc_accuracy_stress 1e-5
  #
    k_grid 2 2 2
  #
     output species_proj_dos -10 10 1000 0.1
     output dos              -10 10 1000 0.1
     dos_kgrid_factors  2 2 2
  #
  output band   0.000  0.000  0.000   0.500  0.000  0.000   21	  Gamma      X
  output band   0.500  0.000  0.000   0.500  0.500  0.000   21	  X	 S
  output band   0.500  0.500  0.000   0.000  0.000  0.000   21	  S	 Gamma
  output band   0.000  0.000  0.000   0.000  0.500  0.000   21	  Gamma  Y
  
  ################################################################################
  #
  #  FHI-aims code project
  # Volker Blum, Fritz Haber Institute Berlin, 2009
  #
  #  Suggested "tight" defaults for Mo atom (to be pasted into control.in file)
  #
  ################################################################################
    species        Mo
  #     global species definitions
      nucleus             42
      mass                95.94
  #
      l_hartree           6
  #
      cut_pot             4.0  2.0  1.0
      basis_dep_cutoff    1e-4
  #
      radial_base         59 7.0
      radial_multiplier   2
      angular_grids specified
        division   0.3117   50
        division   0.6750  110
        division   1.0351  194
        division   1.2073  302
        division   1.6402  434
  #      division   1.9185  590
  #      division   2.0237  770
  #      division   2.0980  974
  #      division   2.7972 1202
  #      outer_grid  974
        outer_grid  434
  ################################################################################
  #
  #  Definition of "minimal" basis
  #
  ################################################################################
  #     valence basis states
      valence      5  s   1.
      valence      4  p   6.
      valence      4  d   5.
  #     ion occupancy
      ion_occ     5  s   0.
      ion_occ     4  p   6.
      ion_occ     4  d   4.
  ################################################################################
  #
  #  Suggested additional basis functions. For production calculations,
  #  uncomment them one after another (the most important basis functions are
  #  listed first).
  #
  #  Constructed for dimers: 1.675 A, 1.9 A, 2.375 A, 3.00 A, 4.00 A
  #
  ################################################################################
  #  "First tier"  - max. impr. -711.23  meV, min. impr. -21.07 meV
       hydro 4 f 8.4
       hydro 3 d 2.8
       ionic 5 p auto
       hydro 5 g 12
       ionic 5 s auto
  #  "Second tier" - max. impr. -39.38  meV, min. impr. -2.68 meV
  #     hydro 4 f 12.4
  #     hydro 3 d 3.3
  #     hydro 6 h 17.2
  #     hydro 4 f 7.6
  #     hydro 3 p 3.0
  #     hydro 1 s 0.65
  #  "Third tier"  - max. impr. -5.50 meV, min. impr. -0.47 meV
  #     hydro 4 f 29.2
  #     hydro 5 g 11.2
  #     hydro 3 d 6.8
  #     hydro 6 h 14.8
  #     hydro 2 p 2.3
  #     hydro 4 s 3.8
  #  "Fourth tier"  - max. impr. -0.58 meV, min. impr. -0.19 meV
  #     hydro 5 f 6.8
  #     hydro 5 d 14.8
  #     hydro 6 s 7.8
  #     hydro 5 g 20.8
  #     hydro 5 d 10.4
  #     hydro 5 p 9.8
  #  Further functions - -0.17 meV and below
  #     hydro 5 d 3.2
  ################################################################################
  #
  #  FHI-aims code project
  # Volker Blum, Fritz Haber Institute Berlin, 2009
  #
  #  Suggested "tight" defaults for S atom (to be pasted into control.in file)
  #
  #  Revised Jan 04, 2011, following tests (SiC) done by Lydia Nemec:
  #     d and g functions of tier 2 now enabled by default.
  #
  ################################################################################
    species        S
  #     global species definitions
      nucleus             16
      mass                32.065
  #
      l_hartree           6
  #
      cut_pot             4.0          2.0  1.0
      basis_dep_cutoff    1e-4
  #
      radial_base         44 7.0
      radial_multiplier   2
      angular_grids       specified
        division   0.4665  110
        division   0.5810  194
        division   0.7139  302
        division   0.8274  434
  #      division   0.9105  590
  #      division   1.0975  770
  #      division   1.2028  974
  #      outer_grid  974
        outer_grid  434
  ################################################################################
  #
  #  Definition of "minimal" basis
  #
  ################################################################################
  #     valence basis states
      valence      3  s   2.
      valence      3  p   4.
  #     ion occupancy
      ion_occ      3  s   1.
      ion_occ      3  p   3.
  ################################################################################
  #
  #  Suggested additional basis functions. For production calculations,
  #  uncomment them one after another (the most important basis functions are
  #  listed first).
  #
  #  Constructed for dimers: 1.6 A, 1.9 A, 2.5 A, 3.25 A, 4.0 A
  #
  ################################################################################
  #  "First tier" - improvements: -652.81 meV to -45.53 meV
       ionic 3 d auto
       hydro 2 p 1.8
       hydro 4 f 7
       ionic 3 s auto
  #  "Second tier" - improvements: -30.20 meV to -1.74 meV
       hydro 4 d 6.2
       hydro 5 g 10.8
  #     hydro 4 p 4.9
  #     hydro 5 f 10
  #     hydro 1 s 0.8
  #  "Third tier" - improvements: -1.04 meV to -0.20 meV
  #     hydro 3 d 3.9
  #     hydro 3 d 2.7
  #     hydro 5 g 12
  #     hydro 4 p 10.4
  #     hydro 5 f 12.4
  #     hydro 2 s 1.9
  #  "Fourth tier" - improvements: -0.35 meV to -0.06 meV
  #     hydro 4 d 10.4
  #     hydro 4 p 7.2
  #     hydro 4 d 10
  #     hydro 5 g 19.2
  #     hydro 4 s 12
  
  ################################################################################
  #
  # For methods that use the localized form of the "resolution of identity" for
  # the two-electron Coulomb operator (RI_method LVL), particularly Hartree-Fock and
  # hybrid density functional calculations, the highest accuracy can be obtained by
  # uncommenting the line beginning with "for_aux"  below, thus adding an extra g radial
  # function to the construction of the product basis set for the expansion.
  # See Ref. New J. Phys. 17, 093020 (2015) for more information, particularly Figs. 1 and 6.
  #
  ################################################################################
  #
  # for_aux hydro 5 g 6.0
  ################################################################################
  #
  #  FHI-aims code project
  # Volker Blum, Fritz Haber Institute Berlin, 2009
  #
  #  Suggested "tight" defaults for O atom (to be pasted into control.in file)
  #
  ################################################################################
    species        O
  #     global species definitions
      nucleus             8
      mass                15.9994
  #
      l_hartree           6
  #
      cut_pot             4.0  2.0  1.0
      basis_dep_cutoff    1e-4
  #
      radial_base         36 7.0
      radial_multiplier   2
       angular_grids specified
        division   0.1817   50
        division   0.3417  110
        division   0.4949  194
        division   0.6251  302
        division   0.8014  434
  #      division   0.8507  590
  #      division   0.8762  770
  #      division   0.9023  974
  #      division   1.2339 1202
  #      outer_grid 974
        outer_grid  434
  ################################################################################
  #
  #  Definition of "minimal" basis
  #
  ################################################################################
  #     valence basis states
      valence      2  s   2.
      valence      2  p   4.
  #     ion occupancy
      ion_occ      2  s   1.
      ion_occ      2  p   3.
  ################################################################################
  #
  #  Suggested additional basis functions. For production calculations,
  #  uncomment them one after another (the most important basis functions are
  #  listed first).
  #
  #  Constructed for dimers: 1.0 A, 1.208 A, 1.5 A, 2.0 A, 3.0 A
  #
  ################################################################################
  #  "First tier" - improvements: -699.05 meV to -159.38 meV
       hydro 2 p 1.8
       hydro 3 d 7.6
       hydro 3 s 6.4
  #  "Second tier" - improvements: -49.91 meV to -5.39 meV
       hydro 4 f 11.6
       hydro 3 p 6.2
       hydro 3 d 5.6
       hydro 5 g 17.6
       hydro 1 s 0.75
  #  "Third tier" - improvements: -2.83 meV to -0.50 meV
  #     ionic 2 p auto
  #     hydro 4 f 10.8
  #     hydro 4 d 4.7
  #     hydro 2 s 6.8
  #  "Fourth tier" - improvements: -0.40 meV to -0.12 meV
  #     hydro 3 p 5
  #     hydro 3 s 3.3
  #     hydro 5 g 15.6
  #     hydro 4 f 17.6
  #     hydro 4 d 14
  # Further basis functions - -0.08 meV and below
  #     hydro 3 s 2.1
  #     hydro 4 d 11.6
  #     hydro 3 p 16
  #     hydro 2 s 17.2
  
  -----------------------------------------------------------------------
  Completed first pass over input file control.in .
  -----------------------------------------------------------------------
  
  
  -----------------------------------------------------------------------
  Parsing geometry.in (first pass over file, find array dimensions only).
  The contents of geometry.in will be repeated verbatim below
  unless switched off by setting 'verbatim_writeout .false.' .
  in the first line of geometry.in .
  -----------------------------------------------------------------------
  
  #
  # This is the geometry file that corresponds to the current relaxation step.
  # If you do not want this file to be written, set the "write_restart_geometry" flag to .false.
  #  aims_uuid : A638BCF3-61BB-47E9-AFDF-D0AD8CF7466C
  #
    set_vacuum_level        26.112428
  lattice_vector     18.94651776      0.00000000      0.00000000
    constrain_relaxation y
    constrain_relaxation z
  lattice_vector      0.00000000     21.87769927      0.00000000
    constrain_relaxation x
    constrain_relaxation z
  lattice_vector      0.00000000      0.00000000     30.00000000
    constrain_relaxation .true.
  atom       0.81859893      1.73600810     11.21912485 Mo
  atom       3.97967855      1.74173225     11.21001155 Mo
  atom       2.40377953      2.65488075     12.78195309 S
  atom       2.39385713      2.64272036      9.64221047 S
  atom       2.40026899      4.47177959     11.20411759 Mo
  atom       0.82372943      5.38567346     12.77695400 S
  atom       0.81523420      5.37684036      9.63711807 S
  atom       7.13496374      1.74574325     11.19559878 Mo
  atom       5.56711381      2.67238906     12.76592663 S
  atom       5.55079670      2.64662222      9.62685088 S
  atom       8.71135442      2.68363356     12.75045112 S
  atom       8.71135958      2.64058438      9.61121898 S
  atom       5.56209190      4.48555239     11.18070642 Mo
  atom       3.99461327      5.39344032     12.75917791 S
  atom       3.96883310      5.37524442      9.61785299 S
  atom       8.71135881      4.49031155     11.15312636 Mo
  atom       7.16437668      5.44891105     12.71689412 S
  atom       7.12136080      5.38396738      9.57901864 S
  atom       0.82270177      7.20272010     11.20161276 Mo
  atom       3.99254266      7.20167060     11.17801704 Mo
  atom       2.42069356      8.11274424     12.75979678 S
  atom       2.39590165      8.10958009      9.62099399 S
  atom       2.40552554      9.93233356     11.18875856 Mo
  atom       0.82689186     10.83963808     12.76649348 S
  atom       0.81594264     10.84770419      9.62910228 S
  atom       7.19456715      7.23860919     11.09768550 Mo
  atom       5.62722210      8.10821225     12.71484306 S
  atom       5.55227925      8.10122105      9.57716925 S
  atom       8.71134138      8.11435133     12.18593214 O
  atom       8.71135789      8.11335988      9.43213223 S
  atom       5.57194567      9.92579385     11.15000364 Mo
  atom       4.00499068     10.82865107     12.74537543 S
  atom       3.97121182     10.85031045      9.60642515 S
  atom       8.71135456      9.86489556     11.09671935 Mo
  atom       7.17497368     10.78635728     12.71450306 S
  atom       7.14235339     10.85525161      9.57677732 S
  atom      10.28776836      1.74575591     11.19560378 Mo
  atom      13.44307302      1.74174436     11.21002075 Mo
  atom      11.85562735      2.67238243     12.76593733 S
  atom      11.87194886      2.64661510      9.62685788 S
  atom      11.86065177      4.48555524     11.18071504 Mo
  atom      10.25836024      5.44891146     12.71689352 S
  atom      10.30138236      5.38396356      9.57902489 S
  atom      16.60414796      1.73600410     11.21912916 Mo
  atom      15.01897797      2.65488157     12.78197090 S
  atom      15.02889560      2.64272189      9.64221167 S
  atom      18.18463245      2.65112723     12.78742912 S
  atom      18.18462749      2.64291837      9.64807168 S
  atom      15.02248764      4.47177306     11.20412564 Mo
  atom      13.42813371      5.39343735     12.75917841 S
  atom      13.45391462      5.37524346      9.61787144 S
  atom      18.18464175      4.47037300     11.21232534 Mo
  atom      16.59902576      5.38567540     12.77695546 S
  atom      16.60751334      5.37684224      9.63712760 S
  atom      10.22816856      7.23862151     11.09768807 Mo
  atom      13.43020427      7.20166495     11.17802859 Mo
  atom      11.79551874      8.10820716     12.71484629 S
  atom      11.87046767      8.10121971      9.57717945 S
  atom      11.85079368      9.92579911     11.15001182 Mo
  atom      10.24775524     10.78635739     12.71450213 S
  atom      10.28038486     10.85525283      9.57678771 S
  atom      16.60004158      7.20272631     11.20161730 Mo
  atom      15.00205592      8.11274598     12.75981487 S
  atom      15.02684295      8.10958317      9.62099308 S
  atom      18.18463531      8.11336677     12.77086607 S
  atom      18.18463081      8.11075401      9.63314406 S
  atom      15.01723416      9.93232606     11.18876757 Mo
  atom      13.41775857     10.82864956     12.74537543 S
  atom      13.45153675     10.85031019      9.60644609 S
  atom      18.18463066      9.93410398     11.20041050 Mo
  atom      16.59585765     10.83964026     12.76650269 S
  atom      16.60679873     10.84770695      9.62910348 S
  atom       0.81989923     12.66713615     11.20318560 Mo
  atom       3.98347241     12.66280710     11.19090755 Mo
  atom       2.40700371     13.56883647     12.77102076 S
  atom       2.39590760     13.58533857      9.63359343 S
  atom       2.39929357     15.40195888     11.21183364 Mo
  atom       0.82014936     16.31001967     12.78586214 S
  atom       0.81734796     16.31993273      9.64774444 S
  atom       7.14282253     12.65518071     11.17799579 Mo
  atom       5.56919263     13.55774269     12.76191790 S
  atom       5.55682935     13.58468073      9.62316769 S
  atom       8.71135550     13.55854415     12.75751860 S
  atom       8.71135988     13.58987634      9.61643757 S
  atom       5.55843707     15.39826964     11.20616015 Mo
  atom       3.98173864     16.30777070     12.78173325 S
  atom       3.97612622     16.31894561      9.64377042 S
  atom       8.71135570     15.40043733     11.20255260 Mo
  atom       7.13560061     16.30831020     12.77805952 S
  atom       7.13230862     16.32067407      9.63870292 S
  atom       0.81832192     18.14006363     11.22197054 Mo
  atom       3.97754015     18.13962541     11.21820984 Mo
  atom       2.40009037     19.05191154     12.79043286 S
  atom       2.39620702     19.05391132      9.65218611 S
  atom       2.39828431     20.87856805     11.22155217 Mo
  atom       0.81974583     21.79157895     12.79202787 S
  atom       0.81665220     21.78715943      9.65305791 S
  atom       7.13353539     18.14049301     11.21395278 Mo
  atom       5.55758418     19.05473970     12.78560853 S
  atom       5.55313477     19.05394549      9.64694114 S
  atom       8.71135146     19.05643266     12.78261704 S
  atom       8.71135627     19.05352137      9.64389772 S
  atom       5.55572998     20.88050580     11.21457345 Mo
  atom       3.98133443     21.79805125     12.78533636 S
  atom       3.97388886     21.78904176      9.64698760 S
  atom       8.71137034     20.88131767     11.21009499 Mo
  atom       7.13624168     21.80478617     12.77613989 S
  atom       7.13126691     21.78721947      9.63823090 S
  atom      10.27990674     12.65518592     11.17800150 Mo
  atom      13.43926589     12.66281545     11.19091882 Mo
  atom      11.85354147     13.55773660     12.76193142 S
  atom      11.86591038     13.58467570      9.62317211 S
  atom      11.86431359     15.39826875     11.20616955 Mo
  atom      10.28713200     16.30831415     12.77805699 S
  atom      10.29043260     16.32067805      9.63871661 S
  atom      16.60284769     12.66713020     11.20319049 Mo
  atom      15.01574893     13.56883249     12.77103373 S
  atom      15.02683949     13.58533561      9.63359854 S
  atom      18.18463161     13.57261557     12.77643143 S
  atom      18.18462675     13.58489124      9.63845567 S
  atom      15.02345198     15.40195096     11.21184253 Mo
  atom      13.44100700     16.30777391     12.78173460 S
  atom      13.44661912     16.31894977      9.64379054 S
  atom      18.18464158     15.40312483     11.21478391 Mo
  atom      16.60260368     16.31001812     12.78586337 S
  atom      16.60539676     16.31993169      9.64775371 S
  atom      10.28919731     18.14051165     11.21395759 Mo
  atom      13.44520626     18.13963037     11.21822072 Mo
  atom      11.86515885     19.05473266     12.78562307 S
  atom      11.86961371     19.05393919      9.64694480 S
  atom      11.86700046     20.88050087     11.21458250 Mo
  atom      10.28649628     21.80479435     12.77615123 S
  atom      10.29147920     21.78722783      9.63822994 S
  atom      16.60441961     18.14006259     11.22197556 Mo
  atom      15.02266125     19.05191194     12.79044837 S
  atom      15.02653916     19.05391274      9.65218917 S
  atom      18.18463582     19.05069264     12.79279321 S
  atom      18.18463095     19.05366551      9.65427242 S
  atom      15.02447509     20.87856302     11.22156168 Mo
  atom      13.44140943     21.79804926     12.78532917 S
  atom      13.44885532     21.78904065      9.64701567 S
  atom      18.18463797     20.87704048     11.22445022 Mo
  atom      16.60300970     21.79158211     12.79203172 S
  atom      16.60609485     21.78716276      9.65306491 S
  #
  # What follows is the current estimated Hessian matrix constructed by the BFGS algorithm.
  # This is NOT the true Hessian matrix of the system.
  # If you do not want this information here, switch it off using the "hessian_to_restart_geometry" keyword.
  #
  trust_radius             0.0006514734
  hessian_block                1       1          10.120607           0.120050          -0.007319           0.120050           9.56254
  hessian_block                1       2          -0.027906           0.279177           0.033892          -0.389918           0.64388
  hessian_block                1       3          -1.674517          -0.785114          -1.405227          -0.902896          -0.72286
  hessian_block                1       4          -1.694963          -0.787795           1.406481          -0.901216          -0.71247
  hessian_block                1       5          -0.078092          -0.339873          -0.006651           0.715516          -1.28978
  hessian_block                1       6           0.064948          -0.036880          -0.004960           0.135944           0.27191
  hessian_block                1       7           0.057816          -0.045300          -0.001831           0.132636           0.27581
  hessian_block                1       8          -1.214131          -0.219082          -0.063542           0.001292           1.04456
  hessian_block                1       9           0.151986          -0.114300          -0.003849           0.022436          -0.15868
  hessian_block                1      10           0.145267          -0.112128           0.010653           0.019920          -0.15662
  hessian_block                1      11          -0.055465           0.103731           0.010056          -0.157494          -0.22104
  hessian_block                1      12          -0.045962           0.102045           0.009011          -0.144705          -0.23341
  hessian_block                1      13          -0.172245           0.446685           0.010836           0.082031          -1.05986
  hessian_block                1      14           0.162024          -0.030990          -0.009479          -0.163536           0.14590
  hessian_block                1      15           0.122633          -0.026324          -0.001269          -0.164595           0.14510
  hessian_block                1      16           0.166516          -0.541032           0.016665           0.108728          -0.30043
  hessian_block                1      17          -0.234610          -0.006288          -0.001861           0.036321           0.24273
  hessian_block                1      18          -0.114393          -0.012294           0.000756           0.024228           0.27920
  hessian_block                1      19           0.668281          -0.214072          -0.002665          -0.414462           0.53873
  hessian_block                1      20          -0.459741           0.131695           0.000928           0.116362           1.16688
  hessian_block                1      21          -0.124535          -0.137564          -0.002254          -0.022160          -0.12720
  hessian_block                1      22          -0.131587          -0.154989           0.009967          -0.037291          -0.12087
  hessian_block                1      23           0.259668           0.760609          -0.007131           0.051153          -0.41333
  hessian_block                1      24          -0.032577          -0.034275          -0.000649           0.363704          -0.20606
  hessian_block                1      25          -0.045104          -0.030366           0.002426           0.351317          -0.20913
  hessian_block                1      26           0.086998           0.382761           0.033796          -0.079021          -0.24262
  hessian_block                1      27           0.072562           0.085648          -0.002798          -0.023426          -0.06117
  hessian_block                1      28           0.110994           0.102944           0.007688           0.085146          -0.08591
  hessian_block                1      29          -0.024908          -0.050735           0.014914           0.125786           0.08133
  hessian_block                1      30           0.008669          -0.072725           0.001800          -0.085520           0.02446
  hessian_block                1      31          -0.187809          -0.879067           0.002821          -0.644245          -0.22235
  hessian_block                1      32          -0.007155          -0.019363          -0.007242           0.180799           0.10114
  hessian_block                1      33          -0.002187          -0.026620           0.004543           0.163358           0.10701
  hessian_block                1      34          -0.329360           0.434892           0.045802           0.555507           0.25319
  hessian_block                1      35          -0.001457           0.011846          -0.011669           0.084428          -0.11031
  hessian_block                1      36           0.010975           0.053828          -0.002654          -0.024302          -0.09186
  hessian_block                1      37           0.748985           0.320250           0.036881           0.185232           0.32701
  hessian_block                1      38           0.030363          -0.269263          -0.030556          -0.004257           0.55964
  hessian_block                1      39          -0.045496          -0.049331           0.007113           0.024667          -0.13542
  hessian_block                1      40          -0.044292          -0.051466          -0.006298           0.043625          -0.13961
  hessian_block                1      41           0.436548           0.392305          -0.008673          -0.455557          -0.36971
  hessian_block                1      42           0.279610          -0.045049          -0.006523           0.237348           0.04973
  hessian_block                1      43           0.147027          -0.009181          -0.007820           0.172247           0.09947
  hessian_block                1      44          -1.872117          -0.456394          -0.012589           0.904803           0.84667
  hessian_block                1      45           0.157599           0.117213           0.004944          -0.224664          -0.10210
  hessian_block                1      46           0.180637           0.122871          -0.004592          -0.221903          -0.09456
  hessian_block                1      47          -1.430856           0.817985           1.402517           0.745950          -0.84961
  hessian_block                1      48          -1.434640           0.819619          -1.393912           0.755669          -0.84217
  hessian_block                1      49           0.064697          -0.236435           0.008021           0.385970          -1.00692
  hessian_block                1      50          -0.245303           0.057283           0.009664          -0.105624           0.13668
  hessian_block                1      51          -0.224085           0.046812           0.002135          -0.110964           0.13569
  hessian_block                1      52          -0.444033           0.468108           0.002348          -0.626811          -1.01839
  hessian_block                1      53           0.039844          -0.030917           0.005745          -0.001682           0.25510
  hessian_block                1      54           0.054007          -0.022707           0.002001          -0.010675           0.25983
  hessian_block                1      55          -0.450304          -0.208428          -0.068097          -0.520761          -0.01423
  hessian_block                1      56           0.327562          -0.312702           0.007092           0.617140           0.31667
  hessian_block                1      57          -0.025308           0.014045           0.006469          -0.079800           0.00232
  hessian_block                1      58           0.041400          -0.014747          -0.002707           0.045925          -0.03532
  hessian_block                1      59           0.723260           0.174615          -0.012181          -0.773276           0.39925
  hessian_block                1      60           0.062038          -0.050377           0.000197           0.111323          -0.13473
  hessian_block                1      61           0.088495          -0.120910          -0.011015           0.063474          -0.16603
  hessian_block                1      62          -0.155810          -0.005022          -0.031403           0.574193           0.37635
  hessian_block                1      63           0.000015           0.082268           0.007719          -0.124504          -0.03828
  hessian_block                1      64          -0.016932           0.107194          -0.003305          -0.129246          -0.02949
  hessian_block                1      65           0.004805           0.083030           0.003062           0.142877          -0.22995
  hessian_block                1      66           0.005654           0.084858           0.003119           0.138074          -0.23418
  hessian_block                1      67           0.091398          -0.189070          -0.001003          -0.615078          -0.01630
  hessian_block                1      68          -0.104351           0.048255           0.009082           0.299582          -0.09256
  hessian_block                1      69          -0.122838           0.064761          -0.002186           0.265392          -0.08346
  hessian_block                1      70          -0.667888          -0.034562           0.012705          -1.220551           0.54203
  hessian_block                1      71           0.141404          -0.030960          -0.002495           0.230802          -0.05349
  hessian_block                1      72           0.157237          -0.041708          -0.005600           0.224288          -0.06241
  hessian_block                1      73           1.005143          -0.398748          -0.022162          -0.438008           0.62328
  hessian_block                1      74          -0.312940           0.232254           0.020887           0.233846           0.06192
  hessian_block                1      75          -0.084816           0.124759          -0.003320           0.001875          -0.05043
  hessian_block                1      76          -0.078403           0.128909           0.005518           0.000279          -0.06145
  hessian_block                1      77          -0.170248          -0.195341          -0.009936          -0.278261          -0.50028
  hessian_block                1      78           0.146725           0.037514          -0.003162           0.172111          -0.06723
  hessian_block                1      79           0.148954           0.037727           0.003684           0.171450          -0.07239
  hessian_block                1      80           0.316300           0.057403           0.005851           0.328786           0.14988
  hessian_block                1      81           0.017701          -0.145933          -0.008239          -0.151816           0.04994
  hessian_block                1      82           0.014681          -0.150387           0.000179          -0.143253           0.05518
  hessian_block                1      83          -0.171702           0.125974           0.008207          -0.061184           0.01273
  hessian_block                1      84          -0.171612           0.123536           0.008587          -0.049397           0.00995
  hessian_block                1      85          -0.048131           0.233705           0.032247           0.111865          -0.47752
  hessian_block                1      86          -0.046991          -0.024568          -0.007156          -0.087807           0.17430
  hessian_block                1      87          -0.052240          -0.015916           0.006140          -0.090604           0.17825
  hessian_block                1      88           0.370084          -0.494391           0.023585          -0.504171           0.39028
  hessian_block                1      89          -0.052547          -0.024940          -0.005555           0.136376           0.03638
  hessian_block                1      90          -0.045186          -0.018057           0.000997           0.143599           0.04243
  hessian_block                1      91           0.085664          -0.684480          -0.008022           0.286109           0.68053
  hessian_block                1      92           0.633462           0.147145          -0.002032           0.346496           0.10249
  hessian_block                1      93          -0.184548           0.150530           0.007178          -0.200648          -0.06778
  hessian_block                1      94          -0.187598           0.159106           0.018382          -0.199615          -0.06669
  hessian_block                1      95          -0.282723          -0.540074          -0.024252           0.516145          -0.87580
  hessian_block                1      96          -0.304427          -0.041771           0.000111           0.237110          -1.77118
  hessian_block                1      97          -0.306536          -0.039911           0.005960           0.242222          -1.76510
  hessian_block                1      98          -0.421848           0.386991          -0.005549          -0.657774           0.11185
  hessian_block                1      99           0.087918          -0.059452          -0.001943          -0.064195          -0.02451
  hessian_block                1     100           0.085320          -0.050321           0.009618          -0.063215          -0.02830
  hessian_block                1     101          -0.081720          -0.007097           0.008377           0.227388           0.04548
  hessian_block                1     102          -0.079674          -0.007895           0.008170           0.233107           0.03980
  hessian_block                1     103          -0.390051           0.065649           0.014026           0.828643          -0.34967
  hessian_block                1     104           0.118613           0.054632          -0.008159          -0.073958           0.19278
  hessian_block                1     105           0.111626           0.056700           0.001810          -0.068815           0.19121
  hessian_block                1     106           0.501810          -0.089818           0.012214          -0.425002          -0.31169
  hessian_block                1     107           0.120358           0.107177           0.011158          -0.068825           0.00152
  hessian_block                1     108           0.114171           0.110424           0.015931          -0.066013          -0.00734
  hessian_block                1     109          -0.456373           0.066401          -0.035917           0.299995          -0.39245
  hessian_block                1     110          -0.027546          -0.226914          -0.012913           0.437714          -0.03740
  hessian_block                1     111           0.190850          -0.054313           0.011568          -0.073953           0.05575
  hessian_block                1     112           0.190226          -0.046727           0.002690          -0.073239           0.06884
  hessian_block                1     113          -0.007699           0.436690          -0.032851          -0.515553           0.25942
  hessian_block                1     114           0.077922           0.015541          -0.003462           0.134472          -0.05883
  hessian_block                1     115           0.070583           0.011383          -0.010295           0.143454          -0.05351
  hessian_block                1     116          -0.442223           0.078654          -0.000291           0.669114          -0.35778
  hessian_block                1     117          -0.005137           0.058471           0.009096          -0.155754           0.09096
  hessian_block                1     118          -0.009050           0.056688           0.000165          -0.156647           0.08192
  hessian_block                1     119          -0.025084          -0.027680           0.000057           0.032666          -0.17343
  hessian_block                1     120          -0.029422          -0.026136           0.000436           0.021869          -0.17675
  hessian_block                1     121           0.448934          -0.405087           0.001868          -0.563225          -0.15741
  hessian_block                1     122          -0.049646           0.069880           0.010595           0.027576           0.05882
  hessian_block                1     123          -0.042525           0.056815          -0.002538           0.026116           0.05935
  hessian_block                1     124          -0.574024           0.547638           0.013295          -0.604495           0.66311
  hessian_block                1     125          -0.030845          -0.126574          -0.002546           0.046626          -0.01053
  hessian_block                1     126          -0.031824          -0.127031          -0.009330           0.044471          -0.01396
  hessian_block                1     127          -0.154058          -0.135888          -0.008315          -0.045196          -0.22244
  hessian_block                1     128          -0.491296          -0.318129          -0.010018           0.655168          -0.43103
  hessian_block                1     129           0.086588           0.049375          -0.001134          -0.052856           0.03331
  hessian_block                1     130           0.087277           0.040563          -0.012700          -0.047170           0.02771
  hessian_block                1     131           0.249699          -0.081109           0.019945          -0.063516           0.30020
  hessian_block                1     132          -0.143151          -0.097729          -0.019005           0.041991          -0.01319
  hessian_block                1     133          -0.136034          -0.101028          -0.023822           0.036894          -0.01462
  hessian_block                1     134           0.333028           0.450567           0.000462           1.036572           0.04326
  hessian_block                1     135           0.083791          -0.094922           0.005205          -0.346524           0.05877
  hessian_block                1     136           0.086306          -0.102164          -0.005885          -0.346222           0.06112
  hessian_block                1     137          -0.030016           0.024395          -0.005225           0.178579          -0.00450
  hessian_block                1     138          -0.032059           0.025236          -0.005119           0.180594          -0.00462
  hessian_block                1     139           0.253267           0.558945          -0.017399           0.242869          -0.34099
  hessian_block                1     140          -0.150866          -0.055965           0.006737           0.061972          -0.00270
  hessian_block                1     141          -0.142384          -0.059182          -0.003388           0.063387          -0.00517
  hessian_block                1     142          -0.385673           0.265765           0.032872          -2.353167          -1.11824
  hessian_block                1     143           0.390926          -0.027664          -0.002203           0.111198           0.18528
  hessian_block                1     144           0.393373          -0.030789          -0.009811           0.114261           0.19304
  hessian_block                2       2           8.696182          -0.378688           0.039049          -0.378688          11.36676
  hessian_block                2       3          -1.452668           0.639945           1.381858           0.852364          -0.84523
  hessian_block                2       4          -1.462359           0.609127          -1.423326           0.855453          -0.84641
  hessian_block                2       5          -0.443449           1.571039           0.096183          -0.037077          -1.43842
  hessian_block                2       6          -0.013722          -0.202232          -0.026692          -0.007100           0.20965
  hessian_block                2       7          -0.017475          -0.232741          -0.027963          -0.016380           0.22968
  hessian_block                2       8          -1.299539           1.822085          -0.071462           0.103517           0.41809
  hessian_block                2       9          -1.415851          -0.665584          -1.412394          -0.754371          -1.08994
  hessian_block                2      10          -1.408863          -0.714059           1.396931          -0.763185          -1.01367
  hessian_block                2      11           0.066397          -0.099792           0.002569          -0.015568           0.07012
  hessian_block                2      12           0.071613          -0.085499           0.006117          -0.040777           0.17556
  hessian_block                2      13           0.177046          -1.552353           0.023284           0.130326          -0.76849
  hessian_block                2      14           0.020628          -0.109710          -0.040240          -0.097818           0.28249
  hessian_block                2      15           0.013008          -0.051772          -0.039817          -0.103153           0.31754
  hessian_block                2      16           0.069664           0.263407           0.035092           0.003013          -0.98835
  hessian_block                2      17           0.039102           0.245053           0.005443          -0.019901           0.05580
  hessian_block                2      18          -0.029292           0.172489           0.006920           0.016516          -0.05930
  hessian_block                2      19           0.114138           0.263865           0.030445           0.319156           0.04824
  hessian_block                2      20           0.165226           0.102071          -0.006344           0.158831           0.46892
  hessian_block                2      21          -0.070520           0.070509          -0.015962           0.013426           0.12729
  hessian_block                2      22          -0.081163           0.070665          -0.014512           0.021208           0.07987
  hessian_block                2      23           0.104540          -0.037190          -0.035557          -0.486936          -0.40198
  hessian_block                2      24           0.062537          -0.025090          -0.018092          -0.121353           0.06398
  hessian_block                2      25           0.055126          -0.049184          -0.021982          -0.112900           0.04940
  hessian_block                2      26           0.085005          -0.153769          -0.013996          -0.241835           0.53062
  hessian_block                2      27           0.020364          -0.096710           0.010918           0.046995          -0.08816
  hessian_block                2      28           0.017915          -0.219053           0.046587          -0.022164          -0.07434
  hessian_block                2      29          -0.022460           0.088830           0.011673           0.005662           0.06777
  hessian_block                2      30          -0.001939           0.045301          -0.002600          -0.017820           0.08000
  hessian_block                2      31          -0.231141           0.015422           0.036831           0.092155          -0.06831
  hessian_block                2      32          -0.093155           0.020374          -0.014490           0.020636           0.00920
  hessian_block                2      33          -0.121174           0.016361          -0.022048           0.032616          -0.01898
  hessian_block                2      34           0.623323          -0.313373           0.049359           0.100402           0.14905
  hessian_block                2      35          -0.065867          -0.023851          -0.008720          -0.123588          -0.18342
  hessian_block                2      36          -0.016986          -0.100201           0.018914          -0.094448          -0.11707
  hessian_block                2      37           0.927685          -1.628119          -0.009493          -0.051433          -0.09352
  hessian_block                2      38          -0.554417           0.093563          -0.075035          -0.639676           2.56040
  hessian_block                2      39          -0.046118          -0.119348           0.021187           0.102285          -0.41521
  hessian_block                2      40          -0.056738          -0.077042           0.013887           0.098387          -0.34876
  hessian_block                2      41           0.113350           1.271475           0.051868           0.086333          -0.43618
  hessian_block                2      42          -0.067573          -0.148187          -0.003817          -0.017897           0.24483
  hessian_block                2      43          -0.009763          -0.141461          -0.015656          -0.019204           0.11648
  hessian_block                2      44          -0.204105           0.405697          -0.058253           0.019525           0.59244
  hessian_block                2      45           0.018400           0.223165           0.029562           0.070628          -0.38413
  hessian_block                2      46           0.030786           0.264139           0.033110           0.065448          -0.40355
  hessian_block                2      47           0.067164          -0.009955           0.000275          -0.004647          -0.23099
  hessian_block                2      48           0.068761          -0.015500          -0.000304          -0.006718          -0.21230
  hessian_block                2      49           0.207241          -1.202538          -0.102623           0.385266          -0.43716
  hessian_block                2      50          -0.078881          -0.026223           0.018467          -0.106344           0.08750
  hessian_block                2      51          -0.076998          -0.066502           0.020259          -0.109786           0.12459
  hessian_block                2      52           0.034678           0.061551          -0.014572          -0.224543          -0.78407
  hessian_block                2      53           0.029397           0.114412           0.024725           0.005668           0.22701
  hessian_block                2      54           0.038584           0.155875           0.027598          -0.000475           0.24362
  hessian_block                2      55          -0.367705          -0.012312          -0.053495           0.116030          -0.42039
  hessian_block                2      56           0.118821           0.053318          -0.032192          -0.043890           0.19011
  hessian_block                2      57          -0.000346           0.012827          -0.012752           0.033040          -0.04759
  hessian_block                2      58          -0.001253           0.138446          -0.038141           0.004492           0.03715
  hessian_block                2      59          -0.137266           0.297987           0.039488          -0.163257           0.36558
  hessian_block                2      60           0.001375           0.053086          -0.010908          -0.090879          -0.03330
  hessian_block                2      61          -0.054497           0.182832          -0.029279          -0.080602           0.04397
  hessian_block                2      62          -0.225975          -0.284456          -0.003922          -0.158480          -0.72357
  hessian_block                2      63           0.064791          -0.028468           0.019789          -0.004514           0.08884
  hessian_block                2      64           0.077908          -0.011377           0.019602           0.000384           0.04198
  hessian_block                2      65           0.009602          -0.037430           0.005909          -0.185899           0.16656
  hessian_block                2      66           0.011737          -0.034743           0.006835          -0.191221           0.18460
  hessian_block                2      67          -0.278570          -0.319115           0.011093           0.109998           0.73551
  hessian_block                2      68           0.079136          -0.007579           0.010191          -0.021539          -0.10166
  hessian_block                2      69           0.101651          -0.043771           0.011188          -0.015720          -0.15351
  hessian_block                2      70           0.198326           0.420237          -0.007528           0.636309           0.38756
  hessian_block                2      71          -0.067562          -0.058541           0.011828          -0.086120          -0.06794
  hessian_block                2      72          -0.057791          -0.027988           0.017091          -0.078463          -0.07893
  hessian_block                2      73          -0.626464          -0.255112           0.080680           0.181465          -0.88648
  hessian_block                2      74           0.629010          -0.026319           0.034771           0.098491           0.16270
  hessian_block                2      75           0.089987           0.069108          -0.028628          -0.058400           0.22552
  hessian_block                2      76           0.086101           0.061047          -0.025179          -0.044977           0.21294
  hessian_block                2      77          -0.302459           0.144774           0.015700           0.237386          -0.22914
  hessian_block                2      78           0.021226          -0.021328          -0.012540          -0.141530           0.20087
  hessian_block                2      79           0.021118          -0.017758          -0.012208          -0.136633           0.18781
  hessian_block                2      80          -0.098112           0.040768          -0.046503           0.020089           0.48056
  hessian_block                2      81          -0.115936          -0.048658          -0.001800           0.010258          -0.04433
  hessian_block                2      82          -0.128711           0.020772          -0.004316           0.020248          -0.04183
  hessian_block                2      83           0.080622          -0.061575           0.001939           0.003274           0.11493
  hessian_block                2      84           0.080815          -0.083975           0.000028           0.008930           0.05564
  hessian_block                2      85           0.088857          -0.014790           0.050391           0.104754          -0.70406
  hessian_block                2      86           0.023731          -0.021949          -0.018097           0.019225           0.05687
  hessian_block                2      87           0.016816          -0.026952          -0.018275           0.026282           0.05505
  hessian_block                2      88           0.276940           0.143045           0.038692           0.309921          -0.01931
  hessian_block                2      89          -0.007244          -0.114787           0.002093          -0.060791           0.08916
  hessian_block                2      90          -0.006960          -0.117772           0.005333          -0.061436           0.10474
  hessian_block                2      91          -0.194504          -0.208390           0.053564           0.052023          -0.17837
  hessian_block                2      92          -0.027355          -0.381441           0.007670          -0.510199           0.87720
  hessian_block                2      93           0.101655           0.005917          -0.001581           0.098189          -0.08351
  hessian_block                2      94           0.095453           0.020335          -0.002609           0.099161          -0.08447
  hessian_block                2      95          -0.736737           0.031930          -0.051923          -0.274741          -1.14955
  hessian_block                2      96          -0.022709          -0.104312          -0.013841           0.000639           0.23227
  hessian_block                2      97          -0.026457          -0.105516          -0.011909          -0.003632           0.24564
  hessian_block                2      98           0.075055           0.824361          -0.099024          -0.076321           0.16247
  hessian_block                2      99          -0.056829          -0.027372           0.037169          -0.021743          -0.09356
  hessian_block                2     100          -0.061668          -0.021832           0.037872          -0.024408          -0.09230
  hessian_block                2     101           0.104376          -0.029293          -0.007746           0.183804           0.02027
  hessian_block                2     102           0.105548          -0.028719          -0.007343           0.183430           0.02048
  hessian_block                2     103           0.539196          -0.008741          -0.070693           0.815255          -1.21881
  hessian_block                2     104          -0.135374           0.042126           0.012942          -0.010751          -2.01422
  hessian_block                2     105          -0.152191           0.045258           0.005757          -0.018425          -2.03557
  hessian_block                2     106          -0.124793          -0.229693           0.052155          -0.562297           0.58264
  hessian_block                2     107           0.227942          -0.154911           0.029508          -0.058275           0.06328
  hessian_block                2     108           0.220245          -0.160002           0.023949          -0.062904           0.02205
  hessian_block                2     109          -0.296958           0.081051          -0.027572           0.159830          -0.31247
  hessian_block                2     110          -0.143921           0.140173          -0.065720          -0.008649          -0.71128
  hessian_block                2     111           0.035193           0.041953           0.015650          -0.015986           0.10518
  hessian_block                2     112           0.039116          -0.015585           0.016958          -0.008341           0.11813
  hessian_block                2     113          -0.080563          -0.294422           0.024945           0.212283          -0.08988
  hessian_block                2     114          -0.059389           0.163898          -0.010159           0.038456           0.28592
  hessian_block                2     115          -0.059982           0.166452          -0.012769           0.038006           0.29758
  hessian_block                2     116           0.371948           0.037055          -0.043911          -0.396105          -1.02852
  hessian_block                2     117          -0.031266          -0.108936           0.031999           0.002480           0.15717
  hessian_block                2     118          -0.023231          -0.090686           0.029860           0.021774           0.15930
  hessian_block                2     119           0.011220           0.073486           0.001587          -0.035897           0.31244
  hessian_block                2     120           0.012287           0.071081           0.001494          -0.030362           0.28107
  hessian_block                2     121          -0.051245           0.165490          -0.054107           0.594720           0.91984
  hessian_block                2     122           0.043120          -0.003494           0.009801          -0.095763          -0.12722
  hessian_block                2     123           0.050317          -0.001120           0.009440          -0.090344          -0.13966
  hessian_block                2     124           0.216838           0.072963           0.001116           0.797601           0.16354
  hessian_block                2     125          -0.073777          -0.050174           0.006836          -0.083198           0.07355
  hessian_block                2     126          -0.074178          -0.054204           0.006763          -0.078978           0.05541
  hessian_block                2     127          -0.233554          -0.719849           0.034021          -0.539442          -0.80121
  hessian_block                2     128          -0.087538           0.229877          -0.064710          -0.315701           0.14168
  hessian_block                2     129          -0.077851           0.011680          -0.012707           0.006070          -0.02608
  hessian_block                2     130          -0.074747           0.007507          -0.013607           0.004572          -0.02693
  hessian_block                2     131           0.213348           0.281508           0.130799           0.766230          -0.51720
  hessian_block                2     132          -0.249959           0.196171          -0.036026          -0.024333           0.20692
  hessian_block                2     133          -0.242359           0.193077          -0.031600          -0.033820           0.16639
  hessian_block                2     134           0.292319           0.061545          -0.013692          -0.749496          -0.29994
  hessian_block                2     135           0.071154           0.044954           0.008154           0.105160          -0.04661
  hessian_block                2     136           0.079803           0.032817           0.009177           0.106871          -0.04482
  hessian_block                2     137          -0.081215           0.053526           0.000629           0.102001          -0.00356
  hessian_block                2     138          -0.081302           0.053001           0.000736           0.105167          -0.00296
  hessian_block                2     139          -0.328143           0.029625           0.016858           0.315956          -0.42310
  hessian_block                2     140           0.074802          -0.060142          -0.023712          -0.036021          -0.23453
  hessian_block                2     141           0.086660          -0.062474          -0.018294          -0.040676          -0.24780
  hessian_block                2     142           0.580452           0.012741          -0.003340          -0.029473          -0.52799
  hessian_block                2     143           0.033360           0.047430           0.012412          -0.067103           0.17323
  hessian_block                2     144           0.038929           0.050049           0.010460          -0.071737           0.18897
  hessian_block                3       3           5.095347           0.055148           0.003387           0.055148           5.14649
  hessian_block                3       4           0.114643           0.060208           0.014436           0.057528           0.15876
  hessian_block                3       5          -0.280706          -0.139694          -0.026939          -0.071645          -1.79917
  hessian_block                3       6           0.013267           0.034185           0.013901           0.031778          -0.08726
  hessian_block                3       7           0.037021           0.018945           0.020925           0.011215          -0.05175
  hessian_block                3       8           0.103901          -0.109327           0.055053           0.138333          -0.21545
  hessian_block                3       9          -0.123411          -0.029687          -0.004765           0.021770           0.10339
  hessian_block                3      10          -0.067136          -0.025502           0.008351           0.027578           0.10203
  hessian_block                3      11           0.029266           0.026465           0.009684           0.042086           0.09761
  hessian_block                3      12           0.025669           0.026026           0.003495           0.045254           0.08549
  hessian_block                3      13           0.281634           0.009370           0.009109          -0.034591           0.16902
  hessian_block                3      14          -0.036894          -0.060339           0.003869          -0.036293          -0.07705
  hessian_block                3      15           0.004966          -0.015527           0.008052          -0.004927          -0.03190
  hessian_block                3      16          -0.069143           0.011865           0.001890          -0.090768           0.04811
  hessian_block                3      17           0.013816           0.077308          -0.046280           0.003089          -0.06505
  hessian_block                3      18          -0.031580           0.008779          -0.007652          -0.004919          -0.04862
  hessian_block                3      19          -0.189052          -0.068019          -0.045750          -0.032186           0.08879
  hessian_block                3      20          -0.000060           0.152547           0.036238           0.094181          -0.12783
  hessian_block                3      21           0.023216           0.010378          -0.012221          -0.003682          -0.03175
  hessian_block                3      22           0.036503           0.009567          -0.001141          -0.002450          -0.02650
  hessian_block                3      23           0.034167          -0.146284           0.062225           0.002122           0.10113
  hessian_block                3      24          -0.031027          -0.007389           0.013973          -0.033030          -0.01466
  hessian_block                3      25          -0.019190           0.000714           0.023035          -0.030388          -0.01372
  hessian_block                3      26           0.111358           0.049608           0.070588           0.008171           0.10137
  hessian_block                3      27           0.005517          -0.046787          -0.013106          -0.007227           0.02982
  hessian_block                3      28          -0.028153          -0.066968          -0.006349          -0.040004          -0.02880
  hessian_block                3      29          -0.017476           0.014003          -0.006501           0.006989          -0.03614
  hessian_block                3      30          -0.012937           0.016192           0.002705           0.032477           0.00756
  hessian_block                3      31          -0.072753           0.146280          -0.027535           0.128589          -0.04218
  hessian_block                3      32           0.024266           0.014455          -0.000349          -0.033354           0.01172
  hessian_block                3      33           0.030059          -0.002154           0.018981          -0.029136           0.02194
  hessian_block                3      34           0.109707           0.002366          -0.007486          -0.209568          -0.23391
  hessian_block                3      35          -0.000016          -0.057371           0.012079          -0.022083           0.04767
  hessian_block                3      36          -0.012648          -0.036438          -0.011485           0.029060           0.10262
  hessian_block                3      37          -0.061586           0.068307          -0.039555           0.004294          -0.11642
  hessian_block                3      38           0.033707           0.041906           0.063155          -0.118889          -0.41623
  hessian_block                3      39           0.024519          -0.004466           0.011740           0.008317           0.06053
  hessian_block                3      40           0.021099          -0.007934           0.004528           0.010496           0.05639
  hessian_block                3      41          -0.203302          -0.089186          -0.057002           0.060854           0.11848
  hessian_block                3      42          -0.035395          -0.062393           0.025566          -0.030999          -0.02170
  hessian_block                3      43           0.013980           0.001164           0.003585          -0.017163          -0.00080
  hessian_block                3      44           0.217566           0.108073          -0.024153          -0.095104          -0.15248
  hessian_block                3      45          -0.060378          -0.070556          -0.008182           0.059144           0.12338
  hessian_block                3      46          -0.070236          -0.077027          -0.021235           0.059465           0.12407
  hessian_block                3      47          -0.059239           0.032599           0.002534           0.002445           0.04358
  hessian_block                3      48          -0.007781           0.033712           0.001384          -0.001697           0.04471
  hessian_block                3      49           0.158308           0.172932           0.040678          -0.101001           0.07883
  hessian_block                3      50           0.059464           0.037000           0.014170           0.006290          -0.01001
  hessian_block                3      51           0.038978           0.017487           0.007343           0.015065          -0.00156
  hessian_block                3      52           0.091589          -0.091363           0.027460           0.086101           0.15620
  hessian_block                3      53          -0.059016          -0.004520          -0.010698           0.025268           0.00196
  hessian_block                3      54          -0.068944          -0.009315          -0.020323           0.025997          -0.00025
  hessian_block                3      55          -0.032354          -0.017637          -0.060286           0.059627           0.09686
  hessian_block                3      56          -0.058162          -0.057833          -0.022874           0.005069          -0.11238
  hessian_block                3      57           0.019063          -0.004792           0.031959          -0.002992          -0.02029
  hessian_block                3      58           0.030357          -0.011885           0.030910          -0.032590          -0.06301
  hessian_block                3      59          -0.110752          -0.079328          -0.038349           0.140349          -0.04390
  hessian_block                3      60          -0.017548           0.033941          -0.007418           0.009852           0.05560
  hessian_block                3      61          -0.012219           0.021659           0.003468           0.047816           0.11138
  hessian_block                3      62           0.192197           0.039232          -0.021963          -0.002125           0.04379
  hessian_block                3      63          -0.038221          -0.007023           0.015503          -0.019064          -0.04896
  hessian_block                3      64          -0.043968          -0.001561           0.004002          -0.019732          -0.04789
  hessian_block                3      65           0.014664           0.028614          -0.001506          -0.024507          -0.11987
  hessian_block                3      66           0.015029           0.030289          -0.002841          -0.018177          -0.11667
  hessian_block                3      67           0.055170           0.038391          -0.017022           0.016684           0.02953
  hessian_block                3      68           0.009914           0.008465           0.002750          -0.060719           0.04803
  hessian_block                3      69           0.011439           0.024172          -0.010266          -0.048716           0.05845
  hessian_block                3      70          -0.008025          -0.000610           0.009332           0.003697           0.13736
  hessian_block                3      71           0.003323          -0.006896          -0.007971           0.016256           0.04302
  hessian_block                3      72          -0.010848          -0.014042          -0.018826           0.016494           0.04337
  hessian_block                3      73          -0.022655          -0.092868          -0.080307           0.073365           0.14117
  hessian_block                3      74           0.031005           0.086093          -0.078152          -0.030633           0.09752
  hessian_block                3      75           0.008059          -0.003301           0.023827           0.031427          -0.08551
  hessian_block                3      76           0.014820           0.004323           0.030456           0.026638          -0.08827
  hessian_block                3      77           0.006628          -0.049399          -0.024442          -0.073542           0.09100
  hessian_block                3      78          -0.019418          -0.036593           0.018947           0.022644           0.01080
  hessian_block                3      79          -0.019426          -0.036079           0.023073           0.024986           0.01279
  hessian_block                3      80          -0.113172           0.063565           0.080711          -0.014262          -0.05788
  hessian_block                3      81          -0.000351          -0.013333           0.002285          -0.009054          -0.04914
  hessian_block                3      82           0.008535          -0.013037           0.006146          -0.017476          -0.05098
  hessian_block                3      83           0.044264           0.020132           0.002450           0.039663           0.01062
  hessian_block                3      84           0.041009           0.019265           0.003723           0.017742          -0.00985
  hessian_block                3      85          -0.021940          -0.069676          -0.002648           0.088968           0.01620
  hessian_block                3      86          -0.006875          -0.000198           0.008441           0.019681           0.01545
  hessian_block                3      87          -0.005044           0.000274           0.019215           0.016970           0.01453
  hessian_block                3      88          -0.091341           0.051915          -0.011579           0.060248          -0.01557
  hessian_block                3      89           0.033466           0.073640          -0.025277          -0.020709          -0.00476
  hessian_block                3      90           0.031468           0.075351          -0.022360          -0.026204          -0.00886
  hessian_block                3      91          -0.007630           0.145665          -0.092762          -0.057528          -0.05810
  hessian_block                3      92          -0.000153           0.006858           0.018151          -0.038205          -0.07985
  hessian_block                3      93           0.010004          -0.025797           0.014883           0.021106           0.01985
  hessian_block                3      94           0.010475          -0.025931           0.022200           0.020438           0.01936
  hessian_block                3      95           0.118437           0.034896           0.010534           0.012538           0.16939
  hessian_block                3      96           0.013593          -0.032020           0.017954          -0.101115          -0.12999
  hessian_block                3      97           0.027370          -0.012369           0.020812          -0.084866          -0.09471
  hessian_block                3      98          -0.006336          -0.110980           0.086461           0.077790          -0.02054
  hessian_block                3      99          -0.019375           0.011536          -0.028715           0.003500           0.03382
  hessian_block                3     100          -0.019813           0.011365          -0.020848           0.003495           0.03414
  hessian_block                3     101          -0.002375           0.014585           0.008940          -0.045413          -0.02498
  hessian_block                3     102          -0.002804           0.015344           0.007930          -0.047745          -0.02699
  hessian_block                3     103           0.038457           0.021683           0.025493          -0.044166           0.09575
  hessian_block                3     104          -0.024533           0.012702          -0.006306           0.032424          -0.06839
  hessian_block                3     105          -0.004243          -0.005949           0.006099           0.011556          -0.02950
  hessian_block                3     106           0.030268          -0.004457           0.011617          -0.013731           0.03141
  hessian_block                3     107          -0.038138           0.039476          -0.024772          -0.033949          -0.04730
  hessian_block                3     108          -0.035677           0.039918          -0.016077          -0.028942          -0.04149
  hessian_block                3     109           0.126637          -0.095843          -0.048526          -0.158841           0.04617
  hessian_block                3     110          -0.037036          -0.020200           0.077848           0.077822           0.06873
  hessian_block                3     111          -0.057877          -0.008674           0.003498          -0.015652          -0.08795
  hessian_block                3     112          -0.064142          -0.013713           0.003360          -0.024767          -0.09343
  hessian_block                3     113           0.163232          -0.014688          -0.034423           0.131859          -0.02621
  hessian_block                3     114          -0.045804          -0.062955           0.017273          -0.011611           0.05462
  hessian_block                3     115          -0.044504          -0.065519           0.013323          -0.016152           0.05263
  hessian_block                3     116           0.002162           0.108958           0.024669          -0.033882           0.16223
  hessian_block                3     117           0.022640          -0.019041          -0.016918           0.014560          -0.10121
  hessian_block                3     118           0.016051          -0.024963          -0.025440           0.008868          -0.10418
  hessian_block                3     119          -0.001240           0.035055          -0.006604          -0.013799          -0.11295
[...]
  |    95       41.528213        0.471787        8.152828       18.649445       14.615277        0.096153        0.014510
  |    96       16.235928       -0.235928        5.851441       10.095246        0.230497        0.048794        0.009949
  |    97       16.235639       -0.235639        5.850877       10.093180        0.232388        0.049181        0.010013
  |    98       41.528392        0.471608        8.152896       18.649419       14.615325        0.096231        0.014520
  |    99       16.235873       -0.235873        5.851386       10.095339        0.230423        0.048779        0.009946
  |   100       16.235689       -0.235689        5.850924       10.093528        0.232119        0.049117        0.010002
  |   101       16.235794       -0.235794        5.851349       10.095234        0.230475        0.048789        0.009947
  |   102       16.235712       -0.235712        5.850948       10.093675        0.231997        0.049094        0.009998
  |   103       41.528488        0.471512        8.153063       18.649505       14.615148        0.096255        0.014518
  |   104       16.235833       -0.235833        5.851433       10.095353        0.230348        0.048757        0.009942
  |   105       16.235651       -0.235651        5.850891       10.093452        0.232175        0.049130        0.010003
  |   106       41.528538        0.471462        8.153130       18.649504       14.615085        0.096296        0.014522
  |   107       16.235616       -0.235616        5.851312       10.095182        0.230412        0.048769        0.009941
  |   108       16.235746       -0.235746        5.851005       10.094001        0.231733        0.049022        0.009984
  |   109       41.526052        0.473948        8.151247       18.648118       14.616609        0.095630        0.014447
  |   110       41.529361        0.470639        8.153726       18.649789       14.614978        0.096346        0.014522
  |   111       16.235843       -0.235843        5.851523       10.096042        0.229719        0.048636        0.009923
  |   112       16.236011       -0.236011        5.850869       10.094304        0.231800        0.049049        0.009989
  |   113       41.528148        0.471852        8.152762       18.649426       14.615324        0.096128        0.014508
  |   114       16.235900       -0.235900        5.851413       10.095013        0.230688        0.048830        0.009955
  |   115       16.235598       -0.235598        5.850869       10.093063        0.232450        0.049198        0.010017
  |   116       41.528640        0.471360        8.153292       18.649610       14.614880        0.096339        0.014521
  |   117       16.235640       -0.235640        5.851288       10.095427        0.230255        0.048736        0.009934
  |   118       16.235811       -0.235811        5.851046       10.094349        0.231484        0.048959        0.009973
  |   119       16.235745       -0.235745        5.851297       10.095523        0.230248        0.048740        0.009937
  |   120       16.235829       -0.235829        5.851033       10.094275        0.231559        0.048984        0.009978
  |   121       41.528590        0.471410        8.153207       18.649589       14.614984        0.096293        0.014518
  |   122       16.235816       -0.235816        5.851394       10.095514        0.230236        0.048733        0.009937
  |   123       16.235694       -0.235694        5.850922       10.093760        0.231945        0.049074        0.009993
  |   124       41.528547        0.471453        8.153129       18.649558       14.615071        0.096273        0.014517
  |   125       16.235870       -0.235870        5.851359       10.095612        0.230225        0.048736        0.009938
  |   126       16.235739       -0.235739        5.850959       10.093899        0.231843        0.049048        0.009989
  |   127       41.528394        0.471606        8.152898       18.649422       14.615324        0.096230        0.014520
  |   128       41.528340        0.471660        8.152957       18.649488       14.615189        0.096194        0.014512
  |   129       16.235874       -0.235874        5.851387       10.095342        0.230420        0.048778        0.009946
  |   130       16.235689       -0.235689        5.850925       10.093530        0.232117        0.049116        0.010001
  |   131       41.528489        0.471511        8.153064       18.649506       14.615146        0.096254        0.014518
  |   132       16.235617       -0.235617        5.851313       10.095186        0.230408        0.048768        0.009941
  |   133       16.235747       -0.235747        5.851006       10.094004        0.231730        0.049022        0.009984
  |   134       41.528406        0.471594        8.152995       18.649508       14.615172        0.096218        0.014514
  |   135       16.235908       -0.235908        5.851406       10.095525        0.230291        0.048747        0.009940
  |   136       16.235689       -0.235689        5.850911       10.093625        0.232054        0.049100        0.009998
  |   137       16.235912       -0.235912        5.851405       10.095452        0.230350        0.048762        0.009943
  |   138       16.235682       -0.235682        5.850912       10.093514        0.232136        0.049118        0.010001
  |   139       41.528212        0.471788        8.152828       18.649445       14.615276        0.096153        0.014510
  |   140       16.235833       -0.235833        5.851432       10.095353        0.230349        0.048757        0.009942
  |   141       16.235651       -0.235651        5.850890       10.093451        0.232177        0.049130        0.010003
  |   142       41.528314        0.471686        8.152843       18.649439       14.615335        0.096182        0.014514
  |   143       16.235928       -0.235928        5.851441       10.095246        0.230497        0.048794        0.009949
  |   144       16.235639       -0.235639        5.850876       10.093180        0.232389        0.049181        0.010013
  |
  | Total     3544.000000       -0.000000
 
  Calculating angular momentum projected density of states ...
  | Chemical potential is  -5.999441 eV.
  | writing projected DOS (shifted by the chemical potential) for species Mo to file Mo_l_proj_dos.dat.
  | writing projected DOS (raw data) for species Mo to file Mo_l_proj_dos_raw.dat.
  | writing projected DOS (shifted by the chemical potential) for species S to file S_l_proj_dos.dat.
  | writing projected DOS (raw data) for species S to file S_l_proj_dos_raw.dat.
  | writing projected DOS (shifted by the chemical potential) for species O to file O_l_proj_dos.dat.
  | writing projected DOS (raw data) for species O to file O_l_proj_dos_raw.dat.
  Post-scf processing of Kohn-Sham eigenvalues on a denser k-point grid.
  | Using dos_kgrid_factors to calculate post-scf total density of states.
  | Electron chemical potential:    -5.999440608279 eV.
  Integrating Hamiltonian matrix: batch-based integration.
  Time summed over all CPUs for integration: real work      999.029 s, elapsed     1837.450 s => Consider using load balancing!
  Processing batch of k-points:     1     1     1
  Processing batch of k-points:     1     1     2
  Processing batch of k-points:     1     2     1
  Processing batch of k-points:     1     2     2
  Processing batch of k-points:     2     1     1
  Processing batch of k-points:     2     1     2
  Processing batch of k-points:     2     2     1
  Processing batch of k-points:     2     2     2
  | writing perturbative DOS (shifted by electron chemical potential) to file KS_dos_total.dat
  | writing perturbative DOS (raw data) to file KS_dos_total_raw.dat

  Perturbative DOS                                        :  max(cpu_time) wall_clock(cpu1)
  | Total Time                                            :       3427.505         3428.340
  ------------------------------------------------------------
  Plotting bands using SCALAPACK
  Integrating Hamiltonian matrix: batch-based integration.
  Time summed over all CPUs for integration: real work     1026.318 s, elapsed     1886.752 s => Consider using load balancing!
  Solving hermitian generalised eigenvalue problem by standard ScaLAPACK.
  Transforming overlap matrix with ScaLAPACK and checking for singularities.
  k-point 1: Overlap matrix is nonsingular, using Cholesky decomposition
  | Lowest eigenvalue:  0.290988E-03
  Factoring overlap matrix with Cholesky decomposition
  Using Cholesky factor for transformation
  Using 2-stage complex ELPA solver
  Solving hermitian generalised eigenvalue problem by standard ScaLAPACK.
  Transforming overlap matrix with ScaLAPACK and checking for singularities.
  k-point 1: Overlap matrix is nonsingular, using Cholesky decomposition
  | Lowest eigenvalue:  0.292234E-03
  Factoring overlap matrix with Cholesky decomposition
  Using Cholesky factor for transformation
  Using 2-stage complex ELPA solver
  Solving hermitian generalised eigenvalue problem by standard ScaLAPACK.
  Transforming overlap matrix with ScaLAPACK and checking for singularities.
  k-point 1: Overlap matrix is nonsingular, using Cholesky decomposition
  | Lowest eigenvalue:  0.293821E-03
  Factoring overlap matrix with Cholesky decomposition
  Using Cholesky factor for transformation
  Using 2-stage complex ELPA solver
"Band gap" along reciprocal space direction number:    1
  |Lowest unoccupied state: -.4326E+01eV
  |Highest occupied state:   -.6077E+01eV

  Solving hermitian generalised eigenvalue problem by standard ScaLAPACK.
  Transforming overlap matrix with ScaLAPACK and checking for singularities.
  k-point 1: Overlap matrix is nonsingular, using Cholesky decomposition
  | Lowest eigenvalue:  0.294157E-03
  Factoring overlap matrix with Cholesky decomposition
  Using Cholesky factor for transformation
  Using 2-stage complex ELPA solver
  Solving hermitian generalised eigenvalue problem by standard ScaLAPACK.
  Transforming overlap matrix with ScaLAPACK and checking for singularities.
  k-point 1: Overlap matrix is nonsingular, using Cholesky decomposition
  | Lowest eigenvalue:  0.296646E-03
  Factoring overlap matrix with Cholesky decomposition
  Using Cholesky factor for transformation
  Using 2-stage complex ELPA solver
  Solving hermitian generalised eigenvalue problem by standard ScaLAPACK.
  Transforming overlap matrix with ScaLAPACK and checking for singularities.
  k-point 1: Overlap matrix is nonsingular, using Cholesky decomposition
  | Lowest eigenvalue:  0.300080E-03
  Factoring overlap matrix with Cholesky decomposition
  Using Cholesky factor for transformation
  Using 2-stage complex ELPA solver
"Band gap" along reciprocal space direction number:    2
  |Lowest unoccupied state: -.4158E+01eV
  |Highest occupied state:   -.6123E+01eV

  Solving hermitian generalised eigenvalue problem by standard ScaLAPACK.
  Transforming overlap matrix with ScaLAPACK and checking for singularities.
  k-point 1: Overlap matrix is nonsingular, using Cholesky decomposition
  | Lowest eigenvalue:  0.299778E-03
  Factoring overlap matrix with Cholesky decomposition
  Using Cholesky factor for transformation
  Using 2-stage complex ELPA solver
  Solving hermitian generalised eigenvalue problem by standard ScaLAPACK.
  Transforming overlap matrix with ScaLAPACK and checking for singularities.
  k-point 1: Overlap matrix is nonsingular, using Cholesky decomposition
  | Lowest eigenvalue:  0.295731E-03
  Factoring overlap matrix with Cholesky decomposition
  Using Cholesky factor for transformation
  Using 2-stage complex ELPA solver
  Solving hermitian generalised eigenvalue problem by standard ScaLAPACK.
  Transforming overlap matrix with ScaLAPACK and checking for singularities.
  k-point 1: Overlap matrix is nonsingular, using Cholesky decomposition
  | Lowest eigenvalue:  0.291751E-03
  Factoring overlap matrix with Cholesky decomposition
  Using Cholesky factor for transformation
  Using 2-stage complex ELPA solver
"Band gap" along reciprocal space direction number:    3
  |Lowest unoccupied state: -.4326E+01eV
  |Highest occupied state:   -.6077E+01eV

  Solving hermitian generalised eigenvalue problem by standard ScaLAPACK.
  Transforming overlap matrix with ScaLAPACK and checking for singularities.
  k-point 1: Overlap matrix is nonsingular, using Cholesky decomposition
  | Lowest eigenvalue:  0.290988E-03
  Factoring overlap matrix with Cholesky decomposition
  Using Cholesky factor for transformation
  Using 2-stage complex ELPA solver
  Solving hermitian generalised eigenvalue problem by standard ScaLAPACK.
  Transforming overlap matrix with ScaLAPACK and checking for singularities.
  k-point 1: Overlap matrix is nonsingular, using Cholesky decomposition
  | Lowest eigenvalue:  0.292159E-03
  Factoring overlap matrix with Cholesky decomposition
  Using Cholesky factor for transformation
  Using 2-stage complex ELPA solver
  Solving hermitian generalised eigenvalue problem by standard ScaLAPACK.
  Transforming overlap matrix with ScaLAPACK and checking for singularities.
  k-point 1: Overlap matrix is nonsingular, using Cholesky decomposition
  | Lowest eigenvalue:  0.294736E-03
  Factoring overlap matrix with Cholesky decomposition
  Using Cholesky factor for transformation
  Using 2-stage complex ELPA solver
"Band gap" along reciprocal space direction number:    4
  |Lowest unoccupied state: -.4326E+01eV
  |Highest occupied state:   -.6077E+01eV


  Band Structure                                          :  max(cpu_time) wall_clock(cpu1)
  | Total Time                                            :       2913.622         2914.487
  ------------------------------------------------------------

------------------------------------------------------------------------------
  Final output of selected total energy values:

  The following output summarizes some interesting total energy values
  at the end of a run (AFTER all relaxation, molecular dynamics, etc.).

  | Total energy of the DFT / Hartree-Fock s.c.f. calculation      :       -6375030.541622967 eV
  | Final zero-broadening corrected energy (caution - metals only) :       -6375030.541622967 eV
  | For reference only, the value of 1 Hartree used in FHI-aims is :             27.211384500 eV

  Before relying on these values, please be sure to understand exactly which
  total energy value is referred to by a given number. Different objects may
  all carry the same name 'total energy'. Definitions:

  Total energy of the DFT / Hartree-Fock s.c.f. calculation:
  | Note that this energy does not include ANY quantities calculated after the
  | s.c.f. cycle, in particular not ANY RPA, MP2, etc. many-body perturbation terms.

  Final zero-broadening corrected energy:
  | For metallic systems only, a broadening of the occupation numbers at the Fermi
  | level can be extrapolated back to zero broadening by an electron-gas inspired
  | formula. For all systems that are not real metals, this value can be
  | meaningless and should be avoided.

------------------------------------------------------------------------------
  Methods described in the following list of references were used in this FHI-aims run.
  If you publish the results, please make sure to cite these reference if they apply.
  FHI-aims is an academic code, and for our developers (often, Ph.D. students
  and postdocs), scientific credit in the community is essential.
  Thank you for helping us!

  For any use of FHI-aims, please cite:

    Volker Blum, Ralf Gehrke, Felix Hanke, Paula Havu, Ville Havu,
    Xinguo Ren, Karsten Reuter, and Matthias Scheffler
    'Ab initio molecular simulations with numeric atom-centered orbitals'
    Computer Physics Communications 180, 2175-2196 (2009)
    http://dx.doi.org/10.1016/j.cpc.2009.06.022


  For the analytical stress tensor used in your run, please cite:

    Franz Knuth, Christian Carbogno, Viktor Atalla, Volker Blum, Matthias Scheffler
    'All-electron formalism for total energy strain derivatives and
    stress tensor components for numeric atom-centered orbitals'
    Computer Physics Communications 190, 33-50 (2015).
    http://dx.doi.org/10.1016/j.cpc.2015.01.003


  The scalable eigensolver library ELPA was used in your run.
  ELPA is essential especially for large systems on hundreds or thousands of CPUs.
  For ELPA, please cite:

    Andreas Marek, Volker Blum, Rainer Johanni, Ville Havu, Bruno Lang,
    Thomas Auckenthaler, Alexander Heinecke, Hans-Joachim Bungartz, and Hermann Lederer,
    'The ELPA Library - Scalable Parallel Eigenvalue Solutions
    for Electronic Structure Theory and Computational Science'
    The Journal of Physics: Condensed Matter 26, 213201 (2014).
    http://dx.doi.org/10.1088/0953-8984/26/21/213201


  For ELPA's efficient two-stage tridiagonalization used in your run, please cite:

    T. Auckenthaler, V. Blum, H.-J. Bungartz, T. Huckle, R. Johanni, L. Kraemer,
    B. Lang, H. Lederer, and P. R. Willems,
    'Parallel solution of partial symmetric eigenvalue problems'
    'from  electronic structure calculations'
    Parallel Computing 37, 783-794 (2011).
    http://dx.doi.org/10.1016/j.parco.2011.05.002


  For the real-space grid partitioning and parallelization used in this calculation, please cite:

    Ville Havu, Volker Blum, Paula Havu, and Matthias Scheffler,
    'Efficient O(N) integration for all-electron electronic structure calculation'
    'using numerically tabulated basis functions'
    Journal of Computational Physics 228, 8367-8379 (2009).
    http://dx.doi.org/10.1016/j.jcp.2009.08.008

  Of course, there are many other important community references, e.g., those cited in the
  above references. Our list is limited to references that describe implementations in the
  FHI-aims code. The reason is purely practical (length of this list) - please credit others as well.

------------------------------------------------------------
          Leaving FHI-aims.
          Date     :  20200401, Time     :  022458.840

          Computational steps:
          | Number of self-consistency cycles          :           35
          | Number of relaxation steps                 :            0

          Detailed time accounting                     :  max(cpu_time)    wall_clock(cpu1)
          | Total time                                 :    15109.150 s       15110.755 s
          | Preparation time                           :        0.718 s           1.443 s
          | Boundary condition initalization           :        3.167 s           3.194 s
          | Grid partitioning                          :       11.204 s          11.210 s
          | Preloading free-atom quantities on grid    :        0.034 s           0.049 s
          | Free-atom superposition energy             :        1.122 s           1.124 s
          | Total time for integrations                :      738.392 s         738.549 s
          | Total time for solution of K.-S. equations :     3502.919 s        3503.140 s
          | Total time for EV reorthonormalization     :        0.000 s           0.000 s
          | Total time for density & force components  :     3553.193 s        3553.510 s
          | Total time for mixing & preconditioning    :      148.196 s         148.397 s
          | Total time for Hartree multipole update    :       49.093 s          49.223 s
          | Total time for Hartree multipole sum       :      698.549 s         698.882 s
          | Total time for total energy evaluation     :        0.288 s           0.780 s
          | Total time for scaled ZORA corrections     :        0.000 s           0.000 s
          | Total time for vdW correction              :       28.737 s          28.749 s
          | Total time for band structures, DOS        :     6342.379 s        6342.827 s

          Have a nice day.
------------------------------------------------------------
